ITEM: TIMESTEP
0
ITEM: NUMBER OF ATOMS
0
ITEM: BOX BOUNDS ff ff ff
0.0000000000000000e+00 4.0000000000000000e+02
0.0000000000000000e+00 4.0000000000000000e+02
0.0000000000000000e+00 8.0000000000000000e+02
ITEM: ATOMS x y z type
