# LAMMPS data file written by OVITO Basic 3.11.3

110501 atoms
1 atom types

0.0 400.0 xlo xhi
0.0 400.0 ylo yhi
0.0 800.0 zlo zhi

Atoms  # atomic

1 1 182.315 154.082 0.0
2 1 182.299 154.054 4.03708
3 1 184.323 154.063 2.02357
4 1 186.344 154.061 0.0
5 1 186.339 154.044 4.03553
6 1 188.368 152.058 0.0
7 1 190.377 152.036 2.02794
8 1 188.362 154.052 2.02397
9 1 190.386 154.055 0.0
10 1 188.358 152.023 4.03939
11 1 190.379 154.036 4.03534
12 1 192.4 152.041 0.0
13 1 194.423 152.034 2.02349
14 1 192.402 154.045 2.02214
15 1 194.425 154.045 0.0
16 1 192.394 152.021 4.03635
17 1 194.423 154.033 4.03336
18 1 196.445 152.033 0.0
19 1 198.47 152.028 2.02382
20 1 196.447 154.04 2.021
21 1 198.468 154.041 0.0
22 1 196.446 152.018 4.03602
23 1 198.469 154.029 4.03319
24 1 200.49 152.032 0.0
25 1 202.511 152.028 2.02385
26 1 200.49 154.037 2.0212
27 1 202.511 154.042 0.0
28 1 200.49 152.012 4.03608
29 1 202.511 154.029 4.03323
30 1 204.536 152.034 0.0
31 1 206.558 152.036 2.02356
32 1 204.532 154.041 2.02103
33 1 206.554 154.047 0.0
34 1 204.535 152.019 4.03613
35 1 206.556 154.035 4.03349
36 1 208.581 152.044 0.0
37 1 210.603 152.04 2.0281
38 1 208.576 154.048 2.0222
39 1 210.592 154.059 0.0
40 1 208.587 152.024 4.03661
41 1 210.599 154.041 4.03559
42 1 212.611 152.065 0.0
43 1 212.614 154.059 2.02418
44 1 214.63 154.072 0.0
45 1 212.622 152.03 4.03992
46 1 214.636 154.055 4.03559
47 1 216.653 154.077 2.02313
48 1 218.679 154.077 0.0
49 1 218.685 154.064 4.03748
50 1 174.258 158.14 0.0
51 1 174.238 158.116 4.03557
52 1 178.275 156.103 2.02271
53 1 176.263 158.119 2.02254
54 1 178.276 158.11 0.0
55 1 178.273 158.101 4.0329
56 1 180.296 156.094 0.0
57 1 182.31 156.082 2.02256
58 1 180.295 158.102 2.02029
59 1 182.315 158.098 0.0
60 1 180.289 156.079 4.03415
61 1 182.31 158.087 4.03174
62 1 184.332 156.081 0.0
63 1 186.347 156.069 2.02122
64 1 184.331 158.088 2.02032
65 1 186.351 158.086 0.0
66 1 184.324 156.064 4.03322
67 1 186.347 158.075 4.0311
68 1 188.366 156.067 0.0
69 1 190.385 156.06 2.02094
70 1 188.368 158.078 2.01971
71 1 190.388 158.076 0.0
72 1 188.363 156.055 4.03298
73 1 190.386 158.067 4.03059
74 1 192.407 156.06 0.0
75 1 194.426 156.054 2.02007
76 1 192.408 158.071 2.0193
77 1 194.428 158.071 0.0
78 1 192.404 156.049 4.03196
79 1 194.427 158.063 4.02988
80 1 196.448 156.055 0.0
81 1 198.468 156.051 2.01973
82 1 196.448 158.067 2.01891
83 1 198.468 158.068 0.0
84 1 196.447 156.045 4.03117
85 1 198.468 158.06 4.02953
86 1 200.489 156.053 0.0
87 1 202.51 156.051 2.01974
88 1 200.488 158.066 2.01878
89 1 202.508 158.069 0.0
90 1 200.489 156.044 4.03109
91 1 202.509 158.061 4.02956
92 1 204.53 156.056 0.0
93 1 206.551 156.056 2.02011
94 1 204.528 158.068 2.01894
95 1 206.548 158.074 0.0
96 1 204.531 156.047 4.03124
97 1 206.549 158.065 4.02998
98 1 208.57 156.064 0.0
99 1 210.591 156.065 2.02108
100 1 208.568 158.075 2.0194
101 1 210.587 158.082 0.0
102 1 208.573 156.052 4.03211
103 1 210.589 158.073 4.03064
104 1 212.609 156.074 0.0
105 1 214.63 156.077 2.02089
106 1 212.607 158.084 2.0196
107 1 214.626 158.09 0.0
108 1 212.612 156.062 4.03297
109 1 214.629 158.082 4.03102
110 1 216.651 156.083 0.0
111 1 216.645 158.094 2.02008
112 1 216.654 156.073 4.03321
113 1 220.676 156.106 0.0
114 1 218.667 156.089 2.02224
115 1 218.66 158.106 0.0
116 1 220.682 158.105 2.02176
117 1 220.692 156.084 4.03507
118 1 218.668 158.092 4.03215
119 1 222.707 156.096 2.02737
120 1 222.696 158.112 0.0
121 1 224.714 158.115 2.023
122 1 222.704 158.099 4.03423
123 1 226.732 158.114 0.0
124 1 226.737 158.1 4.03797
125 1 170.203 160.135 2.02407
126 1 168.184 162.143 2.02336
127 1 170.214 162.156 0.0
128 1 170.196 162.137 4.03308
129 1 172.234 160.146 0.0
130 1 174.244 160.136 2.02277
131 1 172.223 162.147 2.02174
132 1 174.247 162.149 0.0
133 1 172.217 160.128 4.03465
134 1 174.236 162.137 4.03228
135 1 176.268 160.136 0.0
136 1 178.28 160.122 2.0202
137 1 176.262 162.141 2.02051
138 1 178.283 162.139 0.0
139 1 176.257 160.122 4.0326
140 1 178.276 162.13 4.03035
141 1 180.297 160.117 0.0
142 1 182.315 160.109 2.01925
143 1 180.298 162.13 2.01901
144 1 182.317 162.126 0.0
145 1 180.294 160.109 4.03064
146 1 182.314 162.119 4.02904
147 1 184.334 160.106 0.0
148 1 186.352 160.098 2.01902
149 1 184.335 162.119 2.01837
150 1 186.354 162.116 0.0
151 1 184.331 160.097 4.02988
152 1 186.351 162.11 4.02836
153 1 188.371 160.096 0.0
154 1 190.39 160.09 2.01856
155 1 188.372 162.11 2.01805
156 1 190.391 162.109 0.0
157 1 188.369 160.088 4.02931
158 1 190.39 162.103 4.02782
159 1 192.409 160.089 0.0
160 1 194.429 160.084 2.01826
161 1 192.41 162.104 2.01771
162 1 194.429 162.103 0.0
163 1 192.408 160.082 4.02878
164 1 194.428 162.098 4.02742
165 1 196.449 160.085 0.0
166 1 198.468 160.082 2.01808
167 1 196.449 162.1 2.01752
168 1 198.468 162.101 0.0
169 1 196.448 160.078 4.02837
170 1 198.468 162.096 4.02721
171 1 200.488 160.084 0.0
172 1 202.507 160.083 2.0181
173 1 200.487 162.1 2.01748
174 1 202.507 162.102 0.0
175 1 200.488 160.078 4.02825
176 1 202.507 162.097 4.02724
177 1 204.527 160.087 0.0
178 1 206.547 160.087 2.01834
179 1 204.526 162.102 2.01758
180 1 206.545 162.106 0.0
181 1 204.528 160.08 4.02844
182 1 206.546 162.101 4.0275
183 1 208.565 160.092 0.0
184 1 210.585 160.094 2.01857
185 1 208.565 162.107 2.01776
186 1 210.583 162.112 0.0
187 1 208.567 160.086 4.02886
188 1 210.585 162.107 4.02789
189 1 212.604 160.1 0.0
190 1 214.623 160.103 2.01892
191 1 212.603 162.115 2.01804
192 1 214.621 162.121 0.0
193 1 212.606 160.093 4.02932
194 1 214.623 162.114 4.02848
195 1 216.64 160.111 0.0
196 1 216.64 162.123 2.01859
197 1 216.645 160.102 4.03007
198 1 220.678 160.12 0.0
199 1 218.661 160.113 2.01982
200 1 218.658 162.129 0.0
201 1 220.677 162.131 2.01909
202 1 220.683 160.11 4.03134
203 1 218.661 162.122 4.02942
204 1 224.713 160.126 0.0
205 1 222.696 160.121 2.02036
206 1 222.694 162.137 0.0
207 1 224.71 162.139 2.02048
208 1 224.718 160.116 4.03332
209 1 222.698 162.129 4.03077
210 1 228.726 160.15 0.0
211 1 226.724 160.13 2.02294
212 1 226.72 162.151 0.0
213 1 228.741 162.148 2.023
214 1 228.746 160.126 4.03589
215 1 226.731 162.136 4.03311
216 1 230.748 162.158 0.0
217 1 230.766 162.14 4.03507
218 1 166.168 164.154 2.02316
219 1 164.154 166.168 2.02316
220 1 166.18 166.18 0.0
221 1 166.162 166.162 4.03241
222 1 168.196 164.167 0.0
223 1 170.203 164.158 2.02144
224 1 168.186 166.171 2.02135
225 1 170.207 166.175 0.0
226 1 168.177 164.148 4.03254
227 1 170.196 166.164 4.03128
228 1 172.226 164.162 0.0
229 1 174.241 164.156 2.02007
230 1 172.221 166.171 2.01985
231 1 174.242 166.172 0.0
232 1 172.215 164.15 4.03161
233 1 174.235 166.164 4.02974
234 1 176.263 164.156 0.0
235 1 178.279 164.15 2.01902
236 1 176.259 166.167 2.01872
237 1 178.28 166.166 0.0
238 1 176.256 164.148 4.03015
239 1 178.275 166.16 4.02836
240 1 180.3 164.147 0.0
241 1 182.317 164.14 2.0181
242 1 180.297 166.161 2.01796
243 1 182.317 166.159 0.0
244 1 180.295 164.141 4.02864
245 1 182.314 166.154 4.02723
246 1 184.336 164.137 0.0
247 1 186.354 164.132 2.01761
248 1 184.335 166.153 2.01735
249 1 186.355 166.151 0.0
250 1 184.333 164.132 4.02767
251 1 186.353 166.147 4.02648
252 1 188.373 164.13 0.0
253 1 190.391 164.125 2.0173
254 1 188.373 166.146 2.01697
255 1 190.392 166.145 0.0
256 1 188.371 164.124 4.02706
257 1 190.391 166.141 4.02598
258 1 192.411 164.124 0.0
259 1 194.43 164.12 2.01707
260 1 192.411 166.141 2.01673
261 1 194.43 166.141 0.0
262 1 192.41 164.119 4.02662
263 1 194.429 166.137 4.02566
264 1 196.449 164.12 0.0
265 1 198.468 164.118 2.01698
266 1 196.449 166.138 2.01659
267 1 198.468 166.139 0.0
268 1 196.448 164.116 4.02635
269 1 198.468 166.135 4.02551
270 1 200.487 164.12 0.0
271 1 202.506 164.119 2.01701
272 1 200.487 166.138 2.01656
273 1 202.506 166.14 0.0
274 1 200.487 164.115 4.02629
275 1 202.506 166.136 4.02554
276 1 204.525 164.122 0.0
277 1 206.545 164.123 2.01712
278 1 204.525 166.14 2.01662
279 1 206.544 166.143 0.0
280 1 204.526 164.117 4.02641
281 1 206.545 166.139 4.02573
282 1 208.563 164.127 0.0
283 1 210.583 164.128 2.01733
284 1 208.563 166.144 2.01677
285 1 210.582 166.148 0.0
286 1 208.564 164.122 4.0267
287 1 210.583 166.144 4.02608
288 1 212.601 164.133 0.0
289 1 214.62 164.135 2.01771
290 1 212.601 166.15 2.01703
291 1 214.619 166.154 0.0
292 1 212.603 164.128 4.02717
293 1 214.621 166.15 4.02664
294 1 216.639 164.141 0.0
295 1 216.639 166.156 2.0174
296 1 216.641 164.135 4.02789
297 1 220.675 164.148 0.0
298 1 218.658 164.143 2.01815
299 1 218.657 166.161 0.0
300 1 220.675 166.163 2.01806
301 1 220.678 164.142 4.02896
302 1 218.659 166.156 4.02749
303 1 224.707 164.158 0.0
304 1 222.693 164.15 2.01908
305 1 222.692 166.169 0.0
306 1 224.711 166.17 2.01922
307 1 224.714 164.149 4.03073
308 1 222.696 166.162 4.02883
309 1 228.739 164.164 0.0
310 1 226.726 164.158 2.02081
311 1 226.726 166.174 0.0
312 1 228.745 166.173 2.02043
313 1 228.75 164.152 4.03286
314 1 226.732 166.166 4.03068
315 1 232.767 164.169 0.0
316 1 230.76 164.161 2.02205
317 1 230.757 166.178 0.0
318 1 232.777 166.174 2.02187
319 1 232.785 164.151 4.03382
320 1 230.769 166.167 4.03238
321 1 234.783 166.183 0.0
322 1 234.801 166.165 4.03384
323 1 162.143 168.184 2.02336
324 1 160.135 170.203 2.02407
325 1 162.156 170.214 0.0
326 1 162.137 170.196 4.03308
327 1 164.167 168.196 0.0
328 1 166.171 168.186 2.02135
329 1 164.158 170.203 2.02144
330 1 166.175 170.207 0.0
331 1 164.148 168.177 4.03254
332 1 166.164 170.196 4.03128
333 1 168.19 168.19 0.0
334 1 170.203 168.186 2.01976
335 1 168.186 170.203 2.01976
336 1 170.204 170.204 0.0
337 1 168.179 168.179 4.03119
338 1 170.197 170.197 4.02942
339 1 172.222 168.187 0.0
340 1 174.239 168.184 2.01853
341 1 172.219 170.201 2.01844
342 1 174.239 170.201 0.0
343 1 172.215 168.18 4.0295
344 1 174.234 170.197 4.0278
345 1 176.259 168.184 0.0
346 1 178.277 168.18 2.01772
347 1 176.256 170.199 2.01754
348 1 178.277 170.198 0.0
349 1 176.254 168.179 4.02802
350 1 178.273 170.194 4.0266
351 1 180.297 168.179 0.0
352 1 182.315 168.174 2.01717
353 1 180.295 170.195 2.01696
354 1 182.315 170.193 0.0
355 1 180.294 168.174 4.0269
356 1 182.313 170.19 4.02573
357 1 184.335 168.172 0.0
358 1 186.354 168.168 2.01673
359 1 184.334 170.189 2.01655
360 1 186.354 170.188 0.0
361 1 184.333 168.168 4.02606
362 1 186.352 170.185 4.02509
363 1 188.373 168.166 0.0
364 1 190.392 168.163 2.01645
365 1 188.372 170.184 2.01624
366 1 190.392 170.183 0.0
367 1 188.372 168.163 4.02548
368 1 190.391 170.18 4.02465
369 1 192.411 168.162 0.0
370 1 194.43 168.159 2.01628
371 1 192.41 170.181 2.01604
372 1 194.43 170.18 0.0
373 1 192.41 168.158 4.0251
374 1 194.429 170.177 4.02438
375 1 196.449 168.159 0.0
376 1 198.468 168.158 2.0162
377 1 196.449 170.178 2.01593
378 1 198.468 170.179 0.0
379 1 196.448 168.156 4.02489
380 1 198.468 170.176 4.02426
381 1 200.487 168.159 0.0
382 1 202.506 168.158 2.01622
383 1 200.487 170.178 2.0159
384 1 202.506 170.179 0.0
385 1 200.487 168.155 4.02484
386 1 202.506 170.176 4.02429
387 1 204.525 168.16 0.0
388 1 206.544 168.161 2.01631
389 1 204.525 170.179 2.01595
390 1 206.544 170.182 0.0
391 1 204.525 168.157 4.02494
392 1 206.544 170.179 4.02445
393 1 208.563 168.164 0.0
394 1 210.582 168.166 2.0165
395 1 208.563 170.183 2.01608
396 1 210.582 170.186 0.0
397 1 208.564 168.161 4.02519
398 1 210.583 170.183 4.02477
399 1 212.601 168.169 0.0
400 1 214.62 168.171 2.01678
401 1 212.601 170.187 2.01629
402 1 214.62 170.191 0.0
403 1 212.602 168.166 4.02561
404 1 214.621 170.188 4.02527
405 1 216.638 168.175 0.0
406 1 216.639 170.192 2.01664
407 1 216.64 168.171 4.02627
408 1 220.675 168.181 0.0
409 1 218.657 168.177 2.01727
410 1 218.657 170.196 0.0
411 1 220.677 170.198 2.01721
412 1 220.678 168.177 4.0273
413 1 218.66 170.193 4.02605
414 1 224.71 168.187 0.0
415 1 222.694 168.183 2.01806
416 1 222.694 170.201 0.0
417 1 224.713 170.202 2.01794
418 1 224.715 168.181 4.02875
419 1 222.697 170.197 4.02717
420 1 228.744 168.19 0.0
421 1 226.729 168.187 2.01903
422 1 226.729 170.204 0.0
423 1 228.748 170.204 2.01893
424 1 228.751 168.183 4.03045
425 1 226.734 170.2 4.0286
426 1 232.774 168.193 0.0
427 1 230.763 168.189 2.02031
428 1 230.762 170.207 0.0
429 1 232.779 170.205 2.02042
430 1 232.785 168.182 4.03239
431 1 230.769 170.2 4.03043
432 1 236.796 168.2 0.0
433 1 234.792 168.189 2.0221
434 1 234.789 170.21 0.0
435 1 236.806 170.206 2.02298
436 1 236.814 168.182 4.03516
437 1 234.801 170.199 4.03281
438 1 238.805 170.219 0.0
439 1 238.829 170.199 4.03586
440 1 158.14 174.258 0.0
441 1 158.116 174.238 4.03557
442 1 160.146 172.234 0.0
443 1 162.147 172.223 2.02174
444 1 160.136 174.244 2.02277
445 1 162.149 174.247 0.0
446 1 160.128 172.217 4.03465
447 1 162.137 174.236 4.03228
448 1 164.162 172.226 0.0
449 1 166.171 172.221 2.01985
450 1 164.156 174.241 2.02007
451 1 166.172 174.242 0.0
452 1 164.15 172.215 4.03161
453 1 166.164 174.235 4.02974
454 1 168.187 172.222 0.0
455 1 170.201 172.219 2.01844
456 1 168.184 174.239 2.01853
457 1 170.201 174.239 0.0
458 1 168.18 172.215 4.0295
459 1 170.197 174.234 4.0278
460 1 172.22 172.22 0.0
461 1 174.236 172.217 2.01745
462 1 172.217 174.236 2.01745
463 1 174.236 174.236 0.0
464 1 172.215 172.215 4.02773
465 1 174.233 174.233 4.02633
466 1 176.256 172.217 0.0
467 1 178.274 172.214 2.0168
468 1 176.254 174.234 2.01672
469 1 178.274 174.233 0.0
470 1 176.253 172.213 4.02639
471 1 178.271 174.23 4.02527
472 1 180.294 172.213 0.0
473 1 182.313 172.21 2.01637
474 1 180.292 174.231 2.01624
475 1 182.313 174.23 0.0
476 1 180.292 172.21 4.02545
477 1 182.311 174.227 4.02453
478 1 184.333 172.209 0.0
479 1 186.352 172.206 2.01607
480 1 184.332 174.227 2.01591
481 1 186.352 174.226 0.0
482 1 184.331 172.206 4.02478
483 1 186.35 174.224 4.02401
484 1 188.372 172.205 0.0
485 1 190.391 172.202 2.01584
486 1 188.371 174.224 2.01569
487 1 190.391 174.223 0.0
488 1 188.371 172.202 4.0243
489 1 190.39 174.221 4.02365
490 1 192.41 172.201 0.0
491 1 194.429 172.199 2.01571
492 1 192.41 174.221 2.01553
493 1 194.429 174.221 0.0
494 1 192.41 172.199 4.02398
495 1 194.429 174.218 4.02343
496 1 196.449 172.2 0.0
497 1 198.468 172.198 2.01564
498 1 196.448 174.219 2.01544
499 1 198.468 174.22 0.0
500 1 196.448 172.197 4.0238
501 1 198.467 174.217 4.02333
502 1 200.487 172.199 0.0
503 1 202.506 172.199 2.01565
504 1 200.487 174.219 2.01542
505 1 202.506 174.22 0.0
506 1 200.487 172.197 4.02376
507 1 202.506 174.218 4.02335
508 1 204.525 172.201 0.0
509 1 206.544 172.201 2.01573
510 1 204.526 174.22 2.01546
511 1 206.545 174.222 0.0
512 1 204.525 172.198 4.02385
513 1 206.545 174.22 4.0235
514 1 208.563 172.204 0.0
515 1 210.583 172.205 2.01589
516 1 208.564 174.223 2.01557
517 1 210.583 174.225 0.0
518 1 208.564 172.201 4.02407
519 1 210.584 174.223 4.02378
520 1 212.602 172.207 0.0
521 1 214.621 172.209 2.01615
522 1 212.603 174.226 2.01576
523 1 214.622 174.229 0.0
524 1 212.603 172.205 4.02445
525 1 214.623 174.227 4.02423
526 1 216.64 172.212 0.0
527 1 216.641 174.23 2.01606
528 1 216.641 172.209 4.02505
529 1 220.677 172.217 0.0
530 1 218.659 172.214 2.01656
531 1 218.66 174.233 0.0
532 1 220.679 174.234 2.01647
533 1 220.68 172.214 4.0259
534 1 218.662 174.231 4.0249
535 1 224.714 172.22 0.0
536 1 222.696 172.218 2.01711
537 1 222.697 174.237 0.0
538 1 224.717 174.237 2.01705
539 1 224.717 172.217 4.02705
540 1 222.7 174.234 4.0258
541 1 228.748 172.222 0.0
542 1 226.733 172.22 2.01787
543 1 226.733 174.239 0.0
544 1 228.752 174.239 2.01788
545 1 228.753 172.218 4.02857
546 1 226.737 174.236 4.02701
547 1 232.779 172.224 0.0
548 1 230.766 172.222 2.01898
549 1 230.767 174.241 0.0
550 1 232.784 174.239 2.01908
551 1 232.786 172.217 4.03057
552 1 230.772 174.236 4.02862
553 1 236.803 172.226 0.0
554 1 234.795 172.222 2.02069
555 1 234.796 174.241 0.0
556 1 236.814 174.236 2.01999
557 1 236.817 172.215 4.03271
558 1 234.804 174.234 4.03039
559 1 240.845 172.206 0.0
560 1 238.825 172.22 2.02198
561 1 238.83 174.23 0.0
562 1 240.84 174.23 2.02146
563 1 240.852 172.204 4.03585
564 1 238.836 174.228 4.03241
565 1 158.119 176.263 2.02254
566 1 156.103 178.275 2.02271
567 1 158.11 178.276 0.0
568 1 158.101 178.273 4.0329
569 1 160.136 176.268 0.0
570 1 162.141 176.262 2.02051
571 1 160.122 178.28 2.0202
572 1 162.139 178.283 0.0
573 1 160.122 176.257 4.0326
574 1 162.13 178.276 4.03035
575 1 164.156 176.263 0.0
576 1 166.167 176.259 2.01872
577 1 164.15 178.279 2.01902
578 1 166.166 178.28 0.0
579 1 164.148 176.256 4.03015
580 1 166.16 178.275 4.02836
581 1 168.184 176.259 0.0
582 1 170.199 176.256 2.01754
583 1 168.18 178.277 2.01772
584 1 170.198 178.277 0.0
585 1 168.179 176.254 4.02802
586 1 170.194 178.273 4.0266
587 1 172.217 176.256 0.0
588 1 174.234 176.254 2.01672
589 1 172.214 178.274 2.0168
590 1 174.233 178.274 0.0
591 1 172.213 176.253 4.02639
592 1 174.23 178.271 4.02527
593 1 176.253 176.253 0.0
594 1 178.272 176.251 2.01616
595 1 176.251 178.272 2.01616
596 1 178.271 178.271 0.0
597 1 176.251 176.251 4.02521
598 1 178.269 178.269 4.02431
599 1 180.292 176.25 0.0
600 1 182.311 176.248 2.0158
601 1 180.29 178.269 2.01573
602 1 182.31 178.268 0.0
603 1 180.29 176.248 4.02437
604 1 182.308 178.266 4.02365
605 1 184.331 176.247 0.0
606 1 186.35 176.245 2.01555
607 1 184.329 178.266 2.01545
608 1 186.35 178.266 0.0
609 1 184.329 176.245 4.02379
610 1 186.348 178.264 4.0232
611 1 188.37 176.244 0.0
612 1 190.39 176.242 2.01538
613 1 188.369 178.264 2.01526
614 1 190.389 178.263 0.0
615 1 188.369 176.242 4.02339
616 1 190.388 178.262 4.02289
617 1 192.409 176.242 0.0
618 1 194.429 176.241 2.01527
619 1 192.409 178.262 2.01514
620 1 194.429 178.262 0.0
621 1 192.409 176.24 4.02313
622 1 194.428 178.26 4.02271
623 1 196.448 176.241 0.0
624 1 198.468 176.24 2.01523
625 1 196.448 178.261 2.01507
626 1 198.468 178.261 0.0
627 1 196.448 176.239 4.02299
628 1 198.467 178.259 4.02263
629 1 200.487 176.241 0.0
630 1 202.506 176.24 2.01523
631 1 200.487 178.261 2.01506
632 1 202.507 178.262 0.0
633 1 200.487 176.239 4.02295
634 1 202.507 178.26 4.02265
635 1 204.526 176.242 0.0
636 1 206.545 176.242 2.0153
637 1 204.526 178.262 2.01509
638 1 206.546 178.263 0.0
639 1 204.526 176.24 4.02303
640 1 206.546 178.262 4.02279
641 1 208.565 176.244 0.0
642 1 210.584 176.245 2.01544
643 1 208.566 178.264 2.01519
644 1 210.585 178.266 0.0
645 1 208.565 176.242 4.02323
646 1 210.586 178.264 4.02304
647 1 212.603 176.247 0.0
648 1 214.623 176.248 2.01567
649 1 212.605 178.267 2.01536
650 1 214.624 178.269 0.0
651 1 212.604 176.245 4.02358
652 1 214.625 178.267 4.02344
653 1 216.642 176.251 0.0
654 1 216.644 178.27 2.0156
655 1 216.644 176.248 4.02409
656 1 220.681 176.254 0.0
657 1 218.662 176.252 2.01599
658 1 218.663 178.272 0.0
659 1 220.683 178.273 2.01595
660 1 220.682 176.252 4.0248
661 1 218.665 178.27 4.024
662 1 224.718 176.257 0.0
663 1 222.7 176.255 2.01643
664 1 222.701 178.274 0.0
665 1 224.721 178.275 2.01643
666 1 224.72 176.254 4.02577
667 1 222.703 178.272 4.02478
668 1 228.753 176.258 0.0
669 1 226.737 176.257 2.01706
670 1 226.738 178.276 0.0
671 1 228.757 178.276 2.0171
672 1 228.757 176.255 4.02705
673 1 226.741 178.274 4.02581
674 1 232.785 176.259 0.0
675 1 230.771 176.258 2.01793
676 1 230.773 178.277 0.0
677 1 232.791 178.275 2.01781
678 1 232.791 176.254 4.02855
679 1 230.777 178.274 4.02707
680 1 236.818 176.253 0.0
681 1 234.803 176.256 2.01873
682 1 234.806 178.274 0.0
683 1 236.822 178.272 2.01858
684 1 236.823 176.25 4.03015
685 1 234.81 178.272 4.02852
686 1 240.842 176.247 0.0
687 1 238.831 176.25 2.01951
688 1 238.833 178.27 0.0
689 1 240.844 178.267 2.02076
690 1 240.85 176.242 4.03318
691 1 238.839 178.267 4.03069
692 1 242.847 176.247 2.02376
693 1 242.848 178.269 0.0
694 1 242.863 178.261 4.03527
695 1 154.082 182.315 0.0
696 1 154.054 182.299 4.03708
697 1 156.094 180.296 0.0
698 1 158.102 180.295 2.02029
699 1 156.082 182.31 2.02256
700 1 158.098 182.315 0.0
701 1 156.079 180.289 4.03415
702 1 158.087 182.31 4.03174
703 1 160.117 180.297 0.0
704 1 162.13 180.298 2.01901
705 1 160.109 182.315 2.01925
706 1 162.126 182.317 0.0
707 1 160.109 180.294 4.03064
708 1 162.119 182.314 4.02904
709 1 164.147 180.3 0.0
710 1 166.161 180.297 2.01796
711 1 164.14 182.317 2.0181
712 1 166.159 182.317 0.0
713 1 164.141 180.295 4.02864
714 1 166.154 182.314 4.02723
715 1 168.179 180.297 0.0
716 1 170.195 180.295 2.01696
717 1 168.174 182.315 2.01717
718 1 170.193 182.315 0.0
719 1 168.174 180.294 4.0269
720 1 170.19 182.313 4.02573
721 1 172.213 180.294 0.0
722 1 174.231 180.292 2.01624
723 1 172.21 182.313 2.01637
724 1 174.23 182.313 0.0
725 1 172.21 180.292 4.02545
726 1 174.227 182.311 4.02453
727 1 176.25 180.292 0.0
728 1 178.269 180.29 2.01573
729 1 176.248 182.311 2.0158
730 1 178.268 182.31 0.0
731 1 176.248 180.29 4.02437
732 1 178.266 182.308 4.02365
733 1 180.289 180.289 0.0
734 1 182.308 180.287 2.0154
735 1 180.287 182.308 2.0154
736 1 182.308 182.308 0.0
737 1 180.287 180.287 4.0236
738 1 182.306 182.306 4.02303
739 1 184.329 180.287 0.0
740 1 186.348 180.285 2.01518
741 1 184.327 182.306 2.01513
742 1 186.348 182.306 0.0
743 1 184.327 180.285 4.02307
744 1 186.347 182.304 4.0226
745 1 188.369 180.285 0.0
746 1 190.388 180.283 2.01504
747 1 188.368 182.304 2.01496
748 1 190.388 182.304 0.0
749 1 188.368 180.283 4.02271
750 1 190.387 182.303 4.02233
751 1 192.408 180.283 0.0
752 1 194.428 180.282 2.01495
753 1 192.408 182.303 2.01485
754 1 194.428 182.303 0.0
755 1 192.408 180.281 4.02249
756 1 194.427 182.302 4.02217
757 1 196.448 180.282 0.0
758 1 198.468 180.282 2.01491
759 1 196.448 182.302 2.0148
760 1 198.468 182.303 0.0
761 1 196.448 180.281 4.02237
762 1 198.468 182.301 4.0221
763 1 200.487 180.282 0.0
764 1 202.507 180.282 2.01492
765 1 200.488 182.303 2.01479
766 1 202.507 182.303 0.0
767 1 200.487 180.281 4.02235
768 1 202.508 182.302 4.02213
769 1 204.527 180.283 0.0
770 1 206.547 180.283 2.01499
771 1 204.527 182.303 2.01483
772 1 206.547 182.305 0.0
773 1 204.527 180.282 4.02243
774 1 206.548 182.303 4.02226
775 1 208.566 180.285 0.0
776 1 210.586 180.286 2.01511
777 1 208.567 182.305 2.01492
778 1 210.587 182.306 0.0
779 1 208.567 180.283 4.02261
780 1 210.588 182.305 4.02249
781 1 212.606 180.287 0.0
782 1 214.626 180.288 2.0153
783 1 212.607 182.307 2.01506
784 1 214.627 182.309 0.0
785 1 212.607 180.286 4.02292
786 1 214.628 182.307 4.02285
787 1 216.645 180.29 0.0
788 1 216.647 182.31 2.01528
789 1 216.647 180.288 4.02337
790 1 220.684 180.293 0.0
791 1 218.665 180.291 2.01558
792 1 218.667 182.311 0.0
793 1 220.687 182.312 2.01559
794 1 220.686 180.291 4.02399
795 1 218.668 182.31 4.02336
796 1 224.723 180.295 0.0
797 1 222.704 180.293 2.01596
798 1 222.706 182.313 0.0
799 1 224.726 182.314 2.016
800 1 224.725 180.293 4.02483
801 1 222.708 182.312 4.02405
802 1 228.759 180.296 0.0
803 1 226.742 180.295 2.01648
804 1 226.744 182.315 0.0
805 1 228.763 182.315 2.01653
806 1 228.762 180.294 4.02589
807 1 226.746 182.313 4.02495
808 1 232.794 180.295 0.0
809 1 230.778 180.295 2.01709
810 1 230.78 182.315 0.0
811 1 232.798 182.314 2.01719
812 1 232.797 180.293 4.02719
813 1 230.783 182.313 4.02608
814 1 236.824 180.292 0.0
815 1 234.811 180.293 2.01783
816 1 234.814 182.314 0.0
817 1 236.83 182.312 2.01835
818 1 236.829 180.29 4.02901
819 1 234.818 182.312 4.02763
820 1 240.846 180.289 0.0
821 1 238.838 180.29 2.01935
822 1 238.841 182.311 0.0
823 1 240.855 182.307 2.02051
824 1 240.856 180.284 4.03224
825 1 238.848 182.308 4.03011
826 1 244.854 180.288 0.0
827 1 242.859 180.283 2.02272
828 1 242.86 182.307 0.0
829 1 244.876 182.297 2.02399
830 1 244.878 180.274 4.03686
831 1 242.874 182.3 4.0338
832 1 154.063 184.323 2.02357
833 1 154.061 186.344 0.0
834 1 154.044 186.339 4.03553
835 1 156.081 184.332 0.0
836 1 158.088 184.331 2.02032
837 1 156.069 186.347 2.02122
838 1 158.086 186.351 0.0
839 1 156.064 184.324 4.03322
840 1 158.075 186.347 4.0311
841 1 160.106 184.334 0.0
842 1 162.119 184.335 2.01837
843 1 160.098 186.352 2.01902
844 1 162.116 186.354 0.0
845 1 160.097 184.331 4.02988
846 1 162.11 186.351 4.02836
847 1 164.137 184.336 0.0
848 1 166.153 184.335 2.01735
849 1 164.132 186.354 2.01761
850 1 166.151 186.355 0.0
851 1 164.132 184.333 4.02767
852 1 166.147 186.353 4.02648
853 1 168.172 184.335 0.0
854 1 170.189 184.334 2.01655
855 1 168.168 186.354 2.01673
856 1 170.188 186.354 0.0
857 1 168.168 184.333 4.02606
858 1 170.185 186.352 4.02509
859 1 172.209 184.333 0.0
860 1 174.227 184.332 2.01591
861 1 172.206 186.352 2.01607
862 1 174.226 186.352 0.0
863 1 172.206 184.331 4.02478
864 1 174.224 186.35 4.02401
865 1 176.247 184.331 0.0
866 1 178.266 184.329 2.01545
867 1 176.245 186.35 2.01555
868 1 178.266 186.35 0.0
869 1 176.245 184.329 4.02379
870 1 178.264 186.348 4.0232
871 1 180.287 184.329 0.0
872 1 182.306 184.327 2.01513
873 1 180.285 186.348 2.01518
874 1 182.306 186.348 0.0
875 1 180.285 184.327 4.02307
876 1 182.304 186.347 4.0226
877 1 184.327 184.327 0.0
878 1 186.347 184.326 2.01492
879 1 184.326 186.347 2.01492
880 1 186.346 186.346 0.0
881 1 184.326 184.326 4.02257
882 1 186.345 186.345 4.0222
883 1 188.367 184.325 0.0
884 1 190.387 184.324 2.01479
885 1 188.366 186.345 2.01475
886 1 190.387 186.345 0.0
887 1 188.366 184.324 4.02223
888 1 190.386 186.344 4.02193
889 1 192.408 184.324 0.0
890 1 194.427 184.323 2.01471
891 1 192.407 186.344 2.01465
892 1 194.427 186.345 0.0
893 1 192.407 184.323 4.02202
894 1 194.427 186.344 4.02178
895 1 196.448 184.324 0.0
896 1 198.468 184.323 2.01468
897 1 196.448 186.344 2.0146
898 1 198.468 186.344 0.0
899 1 196.447 184.322 4.02192
900 1 198.468 186.343 4.02172
901 1 200.488 184.324 0.0
902 1 202.508 184.324 2.0147
903 1 200.488 186.344 2.0146
904 1 202.508 186.345 0.0
905 1 200.488 184.323 4.0219
906 1 202.508 186.344 4.02176
907 1 204.528 184.325 0.0
908 1 206.548 184.325 2.01476
909 1 204.529 186.345 2.01463
910 1 206.549 186.346 0.0
911 1 204.528 184.323 4.02198
912 1 206.549 186.345 4.02188
913 1 208.568 184.326 0.0
914 1 210.588 184.327 2.01487
915 1 208.569 186.346 2.01472
916 1 210.589 186.347 0.0
917 1 208.569 184.325 4.02215
918 1 210.59 186.346 4.0221
919 1 212.608 184.328 0.0
920 1 214.629 184.329 2.01505
921 1 212.61 186.348 2.01486
922 1 214.63 186.349 0.0
923 1 212.609 184.327 4.02244
924 1 214.631 186.348 4.02244
925 1 216.648 184.33 0.0
926 1 216.65 186.35 2.01506
927 1 216.65 184.329 4.02285
928 1 220.688 184.332 0.0
929 1 218.669 184.331 2.0153
930 1 218.67 186.351 0.0
931 1 220.691 186.351 2.01535
932 1 220.69 184.331 4.02343
933 1 218.671 186.35 4.02292
934 1 224.727 184.334 0.0
935 1 222.709 184.333 2.01564
936 1 222.71 186.353 0.0
937 1 224.73 186.353 2.01573
938 1 224.73 184.332 4.02418
939 1 222.712 186.352 4.02357
940 1 228.766 184.335 0.0
941 1 226.747 184.334 2.01608
942 1 226.749 186.354 0.0
943 1 228.769 186.354 2.01623
944 1 228.768 184.333 4.02516
945 1 226.752 186.353 4.02441
946 1 232.801 184.334 0.0
947 1 230.785 184.334 2.01666
948 1 230.787 186.354 0.0
949 1 232.806 186.354 2.01695
950 1 232.805 184.333 4.02649
951 1 230.79 186.353 4.02554
952 1 236.833 184.333 0.0
953 1 234.819 184.333 2.01756
954 1 234.822 186.354 0.0
955 1 236.84 186.352 2.01805
956 1 236.838 184.33 4.02844
957 1 234.827 186.352 4.02713
958 1 240.859 184.329 0.0
959 1 238.849 184.33 2.01906
960 1 238.854 186.351 0.0
961 1 240.87 186.347 2.01948
962 1 240.869 184.325 4.0312
963 1 238.86 186.348 4.0293
964 1 244.885 184.312 0.0
965 1 242.875 184.322 2.02105
966 1 242.882 186.341 0.0
967 1 244.894 186.334 2.02204
968 1 244.896 184.311 4.03591
969 1 242.89 186.339 4.03234
970 1 246.893 184.305 2.02788
971 1 246.895 186.327 0.0
972 1 246.915 186.321 4.03702
973 1 152.058 188.368 0.0
974 1 154.052 188.362 2.02397
975 1 152.036 190.377 2.02794
976 1 154.055 190.386 0.0
977 1 152.023 188.358 4.03939
978 1 154.036 190.379 4.03534
979 1 156.067 188.366 0.0
980 1 158.078 188.368 2.01971
981 1 156.06 190.385 2.02094
982 1 158.076 190.388 0.0
983 1 156.055 188.363 4.03298
984 1 158.067 190.386 4.03059
985 1 160.096 188.371 0.0
986 1 162.11 188.372 2.01805
987 1 160.09 190.39 2.01856
988 1 162.109 190.391 0.0
989 1 160.088 188.369 4.02931
990 1 162.103 190.39 4.02782
991 1 164.13 188.373 0.0
992 1 166.146 188.373 2.01697
993 1 164.125 190.391 2.0173
994 1 166.145 190.392 0.0
995 1 164.124 188.371 4.02706
996 1 166.141 190.391 4.02598
997 1 168.166 188.373 0.0
998 1 170.184 188.372 2.01624
999 1 168.163 190.392 2.01645
1000 1 170.183 190.392 0.0
1001 1 168.163 188.372 4.02548
1002 1 170.18 190.391 4.02465
1003 1 172.205 188.372 0.0
1004 1 174.224 188.371 2.01569
1005 1 172.202 190.391 2.01584
1006 1 174.223 190.391 0.0
1007 1 172.202 188.371 4.0243
1008 1 174.221 190.39 4.02365
1009 1 176.244 188.37 0.0
1010 1 178.264 188.369 2.01526
1011 1 176.242 190.39 2.01538
1012 1 178.263 190.389 0.0
1013 1 176.242 188.369 4.02339
1014 1 178.262 190.388 4.02289
1015 1 180.285 188.369 0.0
1016 1 182.304 188.368 2.01496
1017 1 180.283 190.388 2.01504
1018 1 182.304 190.388 0.0
1019 1 180.283 188.368 4.02271
1020 1 182.303 190.387 4.02233
1021 1 184.325 188.367 0.0
1022 1 186.345 188.366 2.01475
1023 1 184.324 190.387 2.01479
1024 1 186.345 190.387 0.0
1025 1 184.324 188.366 4.02223
1026 1 186.344 190.386 4.02193
1027 1 188.366 188.366 0.0
1028 1 190.386 188.365 2.01462
1029 1 188.365 190.386 2.01462
1030 1 190.386 190.386 0.0
1031 1 188.365 188.365 4.0219
1032 1 190.386 190.386 4.02167
1033 1 192.407 188.365 0.0
1034 1 194.427 188.365 2.01455
1035 1 192.407 190.386 2.01452
1036 1 194.427 190.386 0.0
1037 1 192.406 188.365 4.0217
1038 1 194.427 190.385 4.02152
1039 1 196.448 188.365 0.0
1040 1 198.468 188.365 2.01452
1041 1 196.448 190.386 2.01447
1042 1 198.468 190.386 0.0
1043 1 196.447 188.364 4.02159
1044 1 198.468 190.385 4.02146
1045 1 200.488 188.365 0.0
1046 1 202.509 188.365 2.01454
1047 1 200.489 190.386 2.01446
1048 1 202.509 190.386 0.0
1049 1 200.488 188.365 4.02158
1050 1 202.509 190.386 4.0215
1051 1 204.529 188.366 0.0
1052 1 206.549 188.366 2.0146
1053 1 204.53 190.387 2.0145
1054 1 206.55 190.387 0.0