ITEM: TIMESTEP
0
ITEM: NUMBER OF ATOMS
800
ITEM: BOX BOUNDS ff ff ff
0.0000000000000000e+00 4.0000000000000000e+02
0.0000000000000000e+00 4.0000000000000000e+02
0.0000000000000000e+00 8.0000000000000000e+02
ITEM: ATOMS x y z type
188.425 91.3915 0 1
194.507 91.1886 0 1
208.568 91.3039 0 1
170.294 95.058 0 1
174.167 93.8131 0 1
176.708 95.039 0 1
183.105 95.0167 0 1
180.542 93.7628 0 1
186.995 93.8206 0 1
184.472 92.5321 0 1
189.564 95.0094 0 1
191.003 92.5508 0 1
193.57 93.8269 0 1
199.276 93.7307 0 1
197.026 92.3055 0 1
196.273 94.9738 0 1
201.592 91.9574 0 1
203.645 93.9606 0 1
201.335 95.3779 0 1
207.463 95.0481 0 1
206.082 92.5846 0 1
209.993 93.7651 0 1
216.425 93.7636 0 1
213.891 94.9999 0 1
212.548 92.5016 0 1
220.318 95.0217 0 1
218.966 92.5374 0 1
222.855 93.7701 0 1
226.731 95.0374 0 1
158.706 98.8989 0 1
165.117 98.8425 0 1
166.427 96.3319 0 1
162.566 97.612 0 1
168.976 97.5661 0 1
172.833 96.3065 0 1
171.518 98.8085 0 1
177.934 98.8004 0 1
175.382 97.5373 0 1
181.791 97.5268 0 1
179.245 96.2771 0 1
185.652 96.2864 0 1
184.343 98.8058 0 1
190.796 98.8105 0 1
188.227 97.5361 0 1
194.685 97.4868 0 1
192.119 96.2647 0 1
199.995 98.9847 0 1
198.648 96.4775 0 1
197.135 98.9331 0 1
202.541 97.7947 0 1
206.296 98.9033 0 1
204.971 96.404 0 1
211.356 96.262 0 1
208.823 97.5669 0 1
215.227 97.5194 0 1
212.686 98.7979 0 1
219.094 98.7836 0 1
217.772 96.253 0 1
224.184 96.2737 0 1
221.645 97.5188 0 1
228.049 97.5448 0 1
225.505 98.78 0 1
231.91 98.8212 0 1
230.598 96.3114 0 1
234.459 97.5898 0 1
238.318 98.8717 0 1
149.735 103.967 0 1
153.559 102.713 0 1
154.861 100.211 0 1
157.418 101.418 0 1
156.113 103.928 0 1
161.261 100.125 0 1
159.966 102.641 0 1
166.367 102.613 0 1
162.521 103.895 0 1
163.811 101.354 0 1
167.665 100.075 0 1
170.218 101.341 0 1
168.924 103.882 0 1
174.075 100.07 0 1
172.775 102.61 0 1
176.631 101.339 0 1
180.489 100.065 0 1
183.042 101.343 0 1
186.905 100.074 0 1
193.378 100.081 0 1
203.757 100.242 0 1
210.152 100.101 0 1
216.545 100.059 0 1
220.404 101.323 0 1
222.956 100.049 0 1
224.258 102.589 0 1
228.109 103.859 0 1
226.81 101.316 0 1
229.363 100.053 0 1
230.664 102.59 0 1
233.219 101.331 0 1
235.767 100.101 0 1
234.516 103.869 0 1
237.073 102.613 0 1
240.923 103.898 0 1
239.622 101.385 0 1
242.175 100.157 0 1
243.475 102.672 0 1
247.315 103.969 0 1
249.873 102.765 0 1
246.031 101.449 0 1
144.582 107.826 0 1
148.445 106.506 0 1
145.88 105.32 0 1
150.986 107.746 0 1
152.272 105.221 0 1
157.385 107.727 0 1
154.827 106.467 0 1
161.231 106.442 0 1
158.673 105.181 0 1
165.077 105.159 0 1
231.959 105.135 0 1
235.807 106.416 0 1
239.652 107.701 0 1
238.365 105.152 0 1
242.209 106.44 0 1
244.766 105.189 0 1
246.056 107.73 0 1
248.617 106.481 0 1
252.457 107.777 0 1
251.172 105.268 0 1
254.995 106.527 0 1
258.849 107.887 0 1
136.94 110.475 0 1
139.503 111.65 0 1
140.756 109.097 0 1
143.3 110.339 0 1
149.697 110.29 0 1
147.141 109.03 0 1
145.859 111.577 0 1
152.253 111.555 0 1
153.539 109.008 0 1
243.496 108.988 0 1
249.9 109.02 0 1
247.341 110.278 0 1
253.739 110.304 0 1
251.185 111.563 0 1
257.582 111.592 0 1
256.282 109.068 0 1
260.145 110.394 0 1
263.957 111.687 0 1
131.819 114.313 0 1
135.615 112.953 0 1
134.376 115.499 0 1
140.74 115.417 0 1
138.184 114.167 0 1
144.58 114.128 0 1
142.032 112.876 0 1
148.414 112.84 0 1
252.467 114.112 0 1
256.302 115.401 0 1
255.024 112.849 0 1
261.413 112.911 0 1
258.857 114.143 0 1
265.257 114.212 0 1
262.704 115.435 0 1
269.077 115.53 0 1
125.407 120.639 0 1
130.512 116.804 0 1
133.074 118.016 0 1
131.777 120.546 0 1
129.219 119.322 0 1
136.915 116.713 0 1
135.626 119.259 0 1
138.179 120.521 0 1
139.462 117.97 0 1
143.295 116.678 0 1
257.585 117.952 0 1
260.143 116.689 0 1
261.419 119.242 0 1
266.526 116.739 0 1
265.255 120.531 0 1
263.975 117.983 0 1
267.813 119.272 0 1
270.371 118.059 0 1
271.606 120.599 0 1
274.147 119.392 0 1
120.369 124.49 0 1
124.117 123.172 0 1
126.673 124.385 0 1
127.956 121.849 0 1
133.059 124.359 0 1
130.506 123.095 0 1
134.337 121.807 0 1
266.523 123.088 0 1
262.698 121.794 0 1
270.358 124.376 0 1
269.07 121.832 0 1
272.908 123.124 0 1
276.755 124.432 0 1
275.466 121.898 0 1
119.031 127.011 0 1
122.887 125.719 0 1
121.587 128.244 0 1
127.96 128.205 0 1
125.418 126.949 0 1
129.227 125.646 0 1
267.805 125.639 0 1
274.199 125.659 0 1
271.642 126.925 0 1
277.986 126.976 0 1
275.455 128.218 0 1
281.831 128.283 0 1
280.525 125.769 0 1
116.456 132.092 0 1
120.295 130.78 0 1
119.009 133.32 0 1
117.738 129.548 0 1
124.127 129.493 0 1
122.842 132.04 0 1
125.394 133.307 0 1
126.676 130.756 0 1
274.192 132.032 0 1
272.911 129.481 0 1
278.028 133.313 0 1
276.74 130.765 0 1
280.581 132.043 0 1
283.135 130.816 0 1
279.282 129.509 0 1
111.402 135.928 0 1
112.723 133.401 0 1
113.935 137.181 0 1
115.231 134.646 0 1
120.294 137.149 0 1
117.756 135.886 0 1
121.561 134.591 0 1
283.116 137.156 0 1
279.311 135.863 0 1
281.867 134.59 0 1
284.426 133.335 0 1
285.635 135.906 0 1
289.466 137.199 0 1
288.147 134.67 0 1
110.094 138.481 0 1
108.822 141.03 0 1
115.182 140.982 0 1
116.468 138.434 0 1
112.647 139.72 0 1
119.011 139.701 0 1
281.859 140.973 0 1
280.577 138.422 0 1
286.931 138.447 0 1
284.401 139.704 0 1
290.773 139.752 0 1
288.219 140.989 0 1
107.527 143.573 0 1
111.364 142.267 0 1
110.07 144.809 0 1
116.447 144.805 0 1
113.902 143.533 0 1
117.728 142.252 0 1
283.14 143.525 0 1
286.965 144.805 0 1
285.685 142.254 0 1
289.502 143.538 0 1
293.338 144.846 0 1
292.045 142.303 0 1
107.496 149.91 0 1
104.952 148.642 0 1
106.232 146.098 0 1
111.33 148.634 0 1
108.779 147.359 0 1
112.616 146.083 0 1
284.42 146.078 0 1
289.534 149.908 0 1
288.25 147.356 0 1
290.795 146.081 0 1
292.085 148.632 0 1
294.633 147.372 0 1
295.911 149.916 0 1
102.4 153.742 0 1
103.675 151.191 0 1
106.217 152.463 0 1
110.049 151.187 0 1
108.769 153.74 0 1
290.815 152.461 0 1
294.645 153.739 0 1
293.367 151.185 0 1
297.186 152.464 0 1
103.666 157.574 0 1
101.13 156.291 0 1
107.492 156.294 0 1
104.94 155.017 0 1
293.369 157.572 0 1
292.093 155.016 0 1
299.701 157.563 0 1
298.456 155.013 0 1
295.92 156.296 0 1
99.8853 158.842 0 1
98.6255 161.402 0 1
102.399 160.136 0 1
104.946 161.408 0 1
106.217 158.85 0 1
294.641 160.129 0 1
298.447 161.417 0 1
297.188 158.857 0 1
300.961 160.123 0 1
99.8688 165.251 0 1
97.347 163.949 0 1
96.0869 166.526 0 1
102.4 166.52 0 1
103.675 163.967 0 1
101.139 162.696 0 1
294.643 166.516 0 1
293.367 163.961 0 1
299.718 163.973 0 1
297.187 165.242 0 1
295.912 162.688 0 1
303.5 165.247 0 1
300.981 166.527 0 1
302.24 162.67 0 1
94.8545 169.097 0 1
98.6061 167.806 0 1
97.3496 170.366 0 1
103.67 170.35 0 1
101.13 169.076 0 1
104.944 167.795 0 1
299.726 170.355 0 1
298.458 167.798 0 1
295.917 169.071 0 1
302.238 169.088 0 1
304.733 167.819 0 1
99.8612 171.633 0 1
98.5557 174.17 0 1
96.0171 172.876 0 1
102.396 172.905 0 1
298.48 174.175 0 1
297.191 171.627 0 1
301.032 172.893 0 1
303.571 171.598 0 1
304.812 174.141 0 1
93.5298 177.98 0 1
94.7754 175.418 0 1
99.8357 178.008 0 1
97.2888 176.726 0 1
101.108 175.453 0 1
299.752 176.73 0 1
303.549 178.009 0 1
302.299 175.449 0 1
306.058 176.703 0 1
94.7891 181.841 0 1
92.3004 180.533 0 1
98.5691 180.566 0 1
97.3015 183.121 0 1
96.0397 179.285 0 1
101.111 181.845 0 1
299.75 183.121 0 1
298.477 180.567 0 1
302.287 181.844 0 1
301.019 179.289 0 1
306.098 183.076 0 1
307.288 179.256 0 1
304.8 180.565 0 1
92.2361 186.901 0 1
93.4909 184.351 0 1
99.8371 184.4 0 1
98.5525 186.948 0 1
96.0061 185.661 0 1
301.035 185.669 0 1
303.583 184.385 0 1
304.838 186.937 0 1
307.354 185.628 0 1
91.0211 189.459 0 1
93.5109 190.769 0 1
94.7514 188.213 0 1
99.8239 190.788 0 1
97.2822 189.503 0 1
299.761 189.508 0 1
303.567 190.778 0 1
302.305 188.224 0 1
306.078 189.492 0 1
308.57 188.188 0 1
90.9697 195.831 0 1
94.7233 194.599 0 1
92.2177 193.28 0 1
98.5508 193.343 0 1
96.0184 192.059 0 1
302.316 194.612 0 1
301.033 192.063 0 1
307.37 191.998 0 1
304.859 193.318 0 1
308.614 194.54 0 1
92.2048 199.677 0 1
93.4672 197.147 0 1
99.8091 197.179 0 1
98.5327 199.732 0 1
95.9926 198.442 0 1
97.2644 195.89 0 1
301.046 198.456 0 1
303.585 197.168 0 1
304.853 199.724 0 1
307.346 198.418 0 1
306.11 195.869 0 1
309.826 197.079 0 1
90.9626 202.23 0 1
93.468 203.532 0 1
94.7149 200.986 0 1
99.7993 203.573 0 1
97.2543 202.283 0 1
303.598 203.561 0 1
302.32 201.01 0 1
306.131 202.264 0 1
309.833 203.48 0 1
308.643 200.934 0 1
94.7092 207.387 0 1
92.2134 206.055 0 1
98.5263 206.128 0 1
95.987 204.838 0 1
302.328 207.406 0 1
301.057 204.851 0 1
307.356 204.827 0 1
304.858 206.117 0 1
308.649 207.359 0 1
90.9826 208.594 0 1
93.4676 209.94 0 1
92.2047 212.492 0 1
99.7938 209.969 0 1
95.982 211.233 0 1
97.249 208.68 0 1
299.788 208.696 0 1
301.065 211.251 0 1
303.603 209.955 0 1
307.372 211.179 0 1
306.129 208.65 0 1
93.4879 216.304 0 1
94.7277 213.773 0 1
99.7969 216.367 0 1
97.2558 215.073 0 1
98.5216 212.522 0 1
299.796 215.095 0 1
303.607 216.366 0 1
302.339 213.807 0 1
306.108 215.05 0 1
304.873 212.503 0 1
308.601 213.718 0 1
94.7596 220.167 0 1
92.2614 218.843 0 1
98.5275 218.921 0 1
95.9915 217.621 0 1
101.069 220.215 0 1
298.521 218.934 0 1
302.336 220.203 0 1
301.068 217.651 0 1
307.36 217.588 0 1
304.858 218.916 0 1
93.5104 222.705 0 1
99.7997 222.77 0 1
96.022 224.016 0 1
97.2654 221.475 0 1
102.342 224.061 0 1
299.791 221.488 0 1
301.049 224.044 0 1
303.579 222.75 0 1
306.105 221.478 0 1
94.7863 226.562 0 1
97.2994 227.867 0 1
98.5339 225.322 0 1
103.618 227.905 0 1
101.072 226.616 0 1
299.771 227.889 0 1
298.506 225.332 0 1
302.309 226.595 0 1
303.537 229.144 0 1
306.037 227.826 0 1
304.815 225.284 0 1
98.5802 231.717 0 1
99.812 229.17 0 1
96.0661 230.415 0 1
102.351 230.462 0 1
101.093 233.018 0 1
104.898 231.749 0 1
298.491 231.734 0 1
295.943 233.015 0 1
297.226 229.177 0 1
302.267 232.99 0 1
301.028 230.446 0 1
304.781 231.684 0 1
99.8637 235.566 0 1
97.3487 234.266 0 1
103.633 234.308 0 1
102.378 236.865 0 1
106.181 235.593 0 1
294.661 236.858 0 1
297.206 235.567 0 1
299.752 234.288 0 1
300.981 236.838 0 1
303.497 235.54 0 1
98.634 238.117 0 1
103.665 240.71 0 1
101.15 239.415 0 1
107.468 239.433 0 1
104.919 238.152 0 1
293.379 240.706 0 1
299.672 240.648 0 1
295.921 239.413 0 1
298.455 238.115 0 1
302.204 239.395 0 1
99.9226 241.967 0 1
102.439 243.262 0 1
101.217 245.818 0 1
106.209 241.991 0 1
104.959 244.548 0 1
108.758 243.274 0 1
289.547 245.823 0 1
294.644 243.264 0 1
292.1 244.548 0 1
298.405 244.522 0 1
297.168 241.968 0 1
295.882 245.815 0 1
300.881 243.198 0 1
103.739 247.098 0 1
102.535 249.656 0 1
107.501 245.834 0 1
106.253 248.396 0 1
108.793 249.675 0 1
110.049 247.115 0 1
288.256 249.659 0 1
290.808 248.376 0 1
294.585 249.655 0 1
293.36 247.103 0 1
297.11 248.365 0 1
107.551 252.233 0 1
105.041 250.952 0 1
110.079 253.511 0 1
111.337 250.957 0 1
113.887 252.235 0 1
286.959 253.494 0 1
289.511 252.216 0 1
293.256 253.464 0 1
292.052 250.925 0 1
295.793 252.221 0 1
106.302 254.771 0 1
111.369 257.352 0 1
108.843 256.054 0 1
115.178 256.068 0 1
112.625 254.793 0 1
117.73 257.348 0 1
285.669 257.336 0 1
284.41 254.779 0 1
290.748 254.777 0 1
288.209 256.045 0 1
294.448 256.022 0 1
291.971 257.343 0 1
107.664 258.623 0 1
110.172 259.915 0 1
116.468 259.908 0 1
112.69 261.181 0 1
113.921 258.624 0 1
115.215 262.469 0 1
119.022 261.181 0 1
121.575 262.457 0 1
280.569 259.895 0 1
283.118 258.612 0 1
281.831 262.451 0 1
284.374 261.162 0 1
286.916 259.894 0 1
290.627 261.135 0 1
289.428 258.583 0 1
288.144 262.457 0 1
111.467 263.726 0 1
116.522 266.289 0 1
113.993 265.023 0 1
120.313 265.015 0 1
117.764 263.737 0 1
122.871 266.281 0 1
276.724 265.001 0 1
283.079 265.008 0 1
280.533 266.272 0 1
279.277 263.724 0 1
286.784 266.254 0 1
285.595 263.698 0 1
115.314 268.841 0 1
119.056 267.573 0 1
117.844 270.133 0 1
124.161 270.114 0 1
121.616 268.828 0 1
125.423 267.561 0 1
272.875 270.105 0 1
277.984 267.555 0 1
275.433 268.837 0 1
281.747 268.81 0 1
279.225 270.108 0 1
284.299 267.576 0 1
120.385 271.365 0 1
119.18 273.907 0 1
122.911 272.665 0 1
125.447 273.954 0 1
126.711 271.396 0 1
131.821 273.942 0 1
129.268 272.663 0 1
270.322 271.384 0 1
271.586 273.937 0 1
274.131 272.653 0 1
277.905 273.961 0 1
276.691 271.397 0 1
280.428 272.674 0 1
282.922 271.372 0 1
124.221 276.511 0 1
121.687 275.224 0 1
126.766 277.74 0 1
128.008 275.208 0 1
133.104 277.777 0 1
130.555 276.491 0 1
129.301 279.034 0 1
135.656 279.058 0 1
261.371 279.044 0 1
266.476 276.484 0 1
263.924 277.764 0 1
270.3 277.772 0 1
269.034 275.217 0 1
267.736 279.025 0 1
272.838 276.486 0 1
274.064 279.043 0 1
276.574 277.729 0 1
275.367 275.189 0 1
128.077 281.584 0 1
125.561 280.28 0 1
131.836 280.331 0 1
130.611 282.886 0 1
136.951 282.861 0 1
134.384 281.615 0 1
140.768 281.602 0 1
138.215 280.322 0 1
143.321 282.881 0 1
260.089 282.878 0 1
266.442 282.848 0 1
265.189 280.311 0 1
262.639 281.592 0 1
268.974 281.553 0 1
271.525 280.327 0 1
133.13 284.174 0 1
135.703 285.382 0 1
138.245 286.676 0 1
139.501 284.145 0 1
144.604 286.705 0 1
142.052 285.427 0 1
145.876 284.159 0 1
252.419 286.695 0 1
254.983 285.435 0 1
257.538 284.161 0 1
258.812 286.718 0 1
261.359 285.429 0 1
265.13 286.68 0 1
263.899 284.134 0 1
267.677 285.403 0 1
270.202 284.07 0 1
136.999 289.212 0 1
134.469 287.895 0 1
139.553 290.517 0 1
140.789 287.962 0 1
143.339 289.243 0 1
149.711 289.271 0 1
147.157 287.988 0 1
145.884 290.534 0 1
152.265 290.549 0 1
244.747 290.524 0 1
249.861 287.971 0 1
247.305 289.248 0 1
253.685 289.231 0 1
251.129 290.511 0 1
257.521 290.546 0 1
256.258 287.992 0 1
260.064 289.277 0 1
262.588 287.977 0 1
144.65 293.078 0 1
142.105 291.787 0 1
148.436 291.822 0 1
147.177 294.371 0 1
149.723 295.647 0 1
153.546 294.378 0 1
150.99 293.102 0 1
157.379 293.099 0 1
154.821 291.826 0 1
156.104 295.65 0 1
159.939 294.369 0 1
162.5 295.638 0 1
166.33 294.367 0 1
163.772 293.093 0 1
168.888 295.639 0 1
237.083 294.369 0 1
234.527 295.646 0 1
239.632 293.076 0 1
240.897 295.614 0 1
243.456 294.34 0 1
242.189 291.8 0 1
249.833 294.318 0 1
248.573 291.789 0 1
246.015 293.066 0 1
247.277 295.593 0 1
252.387 293.037 0 1
253.65 295.565 0 1
256.179 294.256 0 1
254.938 291.748 0 1
152.273 296.92 0 1
157.375 299.431 0 1
154.823 298.188 0 1
161.23 298.174 0 1
158.668 296.916 0 1
163.787 299.442 0 1
165.056 296.911 0 1
170.174 299.446 0 1
167.614 298.179 0 1
173.998 298.197 0 1
171.447 296.911 0 1
176.557 299.468 0 1
182.969 299.468 0 1
180.405 298.194 0 1
189.387 299.488 0 1
214.048 299.417 0 1
220.45 299.451 0 1
223.006 298.17 0 1
226.837 299.443 0 1
225.567 296.899 0 1
233.244 299.467 0 1
229.403 298.179 0 1
231.967 296.915 0 1
235.805 298.202 0 1
239.637 299.471 0 1
238.359 296.925 0 1
242.153 298.129 0 1
244.718 296.864 0 1
245.98 299.392 0 1
248.54 298.122 0 1
251.096 296.846 0 1
159.937 300.689 0 1
162.486 301.965 0 1
165.065 303.223 0 1
166.344 300.703 0 1
168.907 301.958 0 1
172.714 300.749 0 1
171.42 303.287 0 1
177.836 303.261 0 1
175.274 302.014 0 1
179.12 300.733 0 1
181.681 301.999 0 1
185.529 300.755 0 1
184.226 303.293 0 1
190.692 303.311 0 1
188.103 302.032 0 1
194.542 302.069 0 1
191.962 300.768 0 1
198.401 300.608 0 1
197.181 303.308 0 1
202.584 301.786 0 1
200.045 302.751 0 1
206.345 303.149 0 1
205.114 300.579 0 1
211.482 300.672 0 1
208.919 301.928 0 1
215.307 301.969 0 1
212.725 303.224 0 1
219.159 303.263 0 1
217.883 300.713 0 1
224.275 300.711 0 1
221.728 302.008 0 1
228.107 301.975 0 1
225.539 303.232 0 1
231.975 303.237 0 1
230.676 300.726 0 1
237.089 300.745 0 1
234.533 302.003 0 1
243.414 300.628 0 1
167.638 304.453 0 1
173.964 304.526 0 1
176.529 305.77 0 1
179.084 306.997 0 1
182.91 305.805 0 1
180.395 304.51 0 1
186.783 304.547 0 1
185.464 307.06 0 1
189.341 305.787 0 1
188.025 308.273 0 1
191.849 307.07 0 1
193.293 304.635 0 1
194.398 308.283 0 1
198.755 306.916 0 1
195.972 305.949 0 1
201.087 305.281 0 1
203.742 304.316 0 1
201.968 307.89 0 1
204.858 306.91 0 1
207.521 305.74 0 1
211.462 307.002 0 1
210.141 304.504 0 1
208.872 308.213 0 1
214.005 305.734 0 1
216.584 304.5 0 1
215.322 308.219 0 1
217.889 307.011 0 1
220.464 305.778 0 1
223.019 304.55 0 1
226.857 305.715 0 1
229.41 304.483 0 1
197.063 309.151 0 1
