# LAMMPS data file written by OVITO Basic 3.11.3

116135 atoms
1 atom types

0.0 400.0 xlo xhi
0.0 400.0 ylo yhi
0.0 800.0 zlo zhi

Atoms  # atomic

1 1 194.652 150.542 1.56302
2 1 197.81 150.55 1.55906
3 1 200.963 150.55 1.55902
4 1 204.122 150.54 1.56284
5 1 182.049 153.695 1.56429
6 1 185.199 153.691 1.55557
7 1 186.767 152.116 0.0
8 1 186.786 152.13 3.15471
9 1 188.35 153.685 1.55191
10 1 189.925 152.116 0.0
11 1 189.937 152.116 3.14318
12 1 191.504 153.678 1.54995
13 1 193.077 152.104 0.0
14 1 193.077 152.106 3.13806
15 1 194.654 153.675 1.54956
16 1 196.23 152.108 0.0
17 1 196.23 152.11 3.13642
18 1 197.808 153.676 1.54921
19 1 199.387 152.11 0.0
20 1 199.387 152.113 3.13569
21 1 200.965 153.676 1.54917
22 1 202.544 152.107 0.0
23 1 202.544 152.109 3.13628
24 1 204.12 153.673 1.54945
25 1 205.697 152.102 0.0
26 1 205.697 152.104 3.13769
27 1 207.271 153.676 1.54974
28 1 208.849 152.113 0.0
29 1 208.838 152.113 3.14229
30 1 210.424 153.681 1.55158
31 1 212.009 152.112 0.0
32 1 211.991 152.124 3.15278
33 1 213.577 153.686 1.55487
34 1 216.725 153.691 1.56201
35 1 175.747 156.845 1.56619
36 1 178.893 156.832 1.55312
37 1 180.46 155.252 0.0
38 1 180.472 155.262 3.14574
39 1 182.04 156.825 1.54911
40 1 183.618 155.256 0.0
41 1 183.622 155.258 3.13572
42 1 185.194 156.824 1.54816
43 1 186.772 155.254 0.0
44 1 186.774 155.253 3.13118
45 1 188.348 156.821 1.54729
46 1 189.926 155.251 0.0
47 1 189.927 155.247 3.12846
48 1 191.502 156.818 1.54663
49 1 193.079 155.246 0.0
50 1 193.078 155.244 3.12714
51 1 194.655 156.816 1.5462
52 1 196.232 155.245 0.0
53 1 196.231 155.243 3.12645
54 1 197.809 156.815 1.54601
55 1 199.387 155.246 0.0
56 1 199.387 155.243 3.12619
57 1 200.965 156.815 1.54598
58 1 202.542 155.244 0.0
59 1 202.543 155.242 3.12633
60 1 204.119 156.815 1.54611
61 1 205.696 155.244 0.0
62 1 205.696 155.242 3.1269
63 1 207.272 156.816 1.54647
64 1 208.848 155.248 0.0
65 1 208.848 155.244 3.12802
66 1 210.426 156.819 1.54711
67 1 212.002 155.25 0.0
68 1 212.0 155.249 3.13049
69 1 213.578 156.822 1.54794
70 1 215.154 155.253 0.0
71 1 215.151 155.255 3.13443
72 1 216.729 156.827 1.54865
73 1 218.305 155.258 0.0
74 1 218.295 155.266 3.1421
75 1 219.88 156.834 1.55054
76 1 221.458 155.266 0.0
77 1 221.437 155.289 3.15864
78 1 223.034 156.837 1.56033
79 1 172.585 159.976 1.55747
80 1 174.152 158.397 0.0
81 1 174.17 158.416 3.15093
82 1 175.734 159.973 1.54856
83 1 177.312 158.403 0.0
84 1 177.317 158.405 3.13522
85 1 178.887 159.971 1.54733
86 1 180.464 158.398 0.0
87 1 180.465 158.397 3.12874
88 1 182.039 159.968 1.54608
89 1 183.616 158.396 0.0
90 1 183.616 158.393 3.12585
91 1 185.192 159.966 1.54544
92 1 186.77 158.394 0.0
93 1 186.77 158.391 3.12452
94 1 188.346 159.964 1.5449
95 1 189.924 158.392 0.0
96 1 189.924 158.389 3.12347
97 1 191.5 159.962 1.54446
98 1 193.078 158.389 0.0
99 1 193.078 158.387 3.12278
100 1 194.655 159.961 1.54414
101 1 196.232 158.388 0.0
102 1 196.232 158.385 3.12231
103 1 197.81 159.96 1.54399
104 1 199.387 158.388 0.0
105 1 199.387 158.385 3.12213
106 1 200.965 159.959 1.54396
107 1 202.542 158.387 0.0
108 1 202.542 158.385 3.12222
109 1 204.119 159.96 1.54407
110 1 205.696 158.388 0.0
111 1 205.696 158.385 3.12259
112 1 207.273 159.961 1.54435
113 1 208.85 158.39 0.0
114 1 208.85 158.387 3.12321
115 1 210.427 159.963 1.54476
116 1 212.003 158.392 0.0
117 1 212.003 158.389 3.12421
118 1 213.581 159.965 1.54528
119 1 215.155 158.395 0.0
120 1 215.156 158.393 3.12547
121 1 216.734 159.968 1.54591
122 1 218.308 158.399 0.0
123 1 218.308 158.398 3.12754
124 1 219.887 159.971 1.5469
125 1 221.463 158.401 0.0
126 1 221.46 158.402 3.13223
127 1 223.04 159.972 1.54829
128 1 224.618 158.397 0.0
129 1 224.606 158.405 3.14345
130 1 226.183 159.981 1.55266
131 1 229.323 159.998 1.56591
132 1 169.442 163.136 1.55109
133 1 171.012 161.552 0.0
134 1 171.022 161.558 3.13986
135 1 172.585 163.124 1.54771
136 1 174.158 161.545 0.0
137 1 174.159 161.546 3.12993
138 1 175.732 163.118 1.54612
139 1 177.309 161.545 0.0
140 1 177.308 161.543 3.12536
141 1 178.884 163.116 1.54511
142 1 180.461 161.542 0.0
143 1 180.461 161.54 3.12349
144 1 182.036 163.114 1.54428
145 1 183.614 161.54 0.0
146 1 183.614 161.538 3.12208
147 1 185.19 163.112 1.54369
148 1 186.768 161.538 0.0
149 1 186.768 161.536 3.12116
150 1 188.344 163.111 1.54323
151 1 189.923 161.537 0.0
152 1 189.922 161.535 3.12047
153 1 191.499 163.109 1.54288
154 1 193.077 161.535 0.0
155 1 193.077 161.533 3.11997
156 1 194.654 163.108 1.54264
157 1 196.232 161.534 0.0
158 1 196.232 161.532 3.11964
159 1 197.809 163.108 1.54251
160 1 199.387 161.534 0.0
161 1 199.387 161.532 3.1195
162 1 200.965 163.107 1.54249
163 1 202.542 161.534 0.0
164 1 202.542 161.532 3.11957
165 1 204.12 163.108 1.54258
166 1 205.697 161.534 0.0
167 1 205.697 161.532 3.11984
168 1 207.275 163.109 1.54279
169 1 208.851 161.536 0.0
170 1 208.851 161.533 3.1203
171 1 210.429 163.11 1.54312
172 1 212.005 161.538 0.0
173 1 212.006 161.535 3.12097
174 1 213.583 163.112 1.54356
175 1 215.159 161.54 0.0
176 1 215.159 161.538 3.12183
177 1 216.737 163.114 1.54413
178 1 218.312 161.542 0.0
179 1 218.313 161.54 3.12301
180 1 219.89 163.116 1.54488
181 1 221.465 161.544 0.0
182 1 221.466 161.542 3.12471
183 1 223.042 163.119 1.54581
184 1 224.614 161.548 0.0
185 1 224.613 161.547 3.12817
186 1 226.191 163.124 1.54745
187 1 227.762 161.557 0.0
188 1 227.757 161.559 3.13544
189 1 229.34 163.13 1.54936
190 1 230.916 161.555 0.0
191 1 230.897 161.577 3.15456
192 1 232.484 163.14 1.56323
193 1 166.287 166.287 1.5501
194 1 167.863 164.711 0.0
195 1 169.434 166.28 1.54762
196 1 167.866 164.714 3.13512
197 1 171.01 164.702 0.0
198 1 171.01 164.702 3.12756
199 1 172.581 166.273 1.54572
200 1 174.157 164.695 0.0
201 1 174.156 164.694 3.12405
202 1 175.73 166.268 1.5445
203 1 177.307 164.692 0.0
204 1 177.306 164.69 3.12199
205 1 178.882 166.265 1.54361
206 1 180.459 164.69 0.0
207 1 180.458 164.688 3.12068
208 1 182.035 166.263 1.54292
209 1 183.613 164.688 0.0
210 1 183.612 164.686 3.11966
211 1 185.189 166.261 1.54239
212 1 186.767 164.686 0.0
213 1 186.766 164.684 3.1189
214 1 188.343 166.26 1.54199
215 1 189.921 164.685 0.0
216 1 189.921 164.683 3.11833
217 1 191.498 166.259 1.54169
218 1 193.077 164.684 0.0
219 1 193.076 164.682 3.11792
220 1 194.654 166.258 1.54148
221 1 196.232 164.683 0.0
222 1 196.232 164.681 3.11765
223 1 197.809 166.258 1.54137
224 1 199.387 164.683 0.0
225 1 199.387 164.681 3.11755
226 1 200.965 166.257 1.54135
227 1 202.542 164.683 0.0
228 1 202.543 164.681 3.1176
229 1 204.12 166.258 1.54143
230 1 205.698 164.683 0.0
231 1 205.698 164.682 3.11781
232 1 207.276 166.258 1.54161
233 1 208.852 164.684 0.0
234 1 208.853 164.682 3.11819
235 1 210.431 166.259 1.54188
236 1 212.007 164.686 0.0
237 1 212.008 164.684 3.11873
238 1 213.585 166.261 1.54226
239 1 215.161 164.687 0.0
240 1 215.162 164.685 3.11944
241 1 216.74 166.262 1.54276
242 1 218.315 164.689 0.0
243 1 218.316 164.687 3.12037
244 1 219.893 166.264 1.5434
245 1 221.468 164.692 0.0
246 1 221.469 164.689 3.12164
247 1 223.046 166.267 1.54423
248 1 224.619 164.695 0.0
249 1 224.62 164.693 3.12354
250 1 226.197 166.27 1.54534
251 1 227.769 164.7 0.0
252 1 227.77 164.698 3.12614
253 1 229.348 166.274 1.54672
254 1 230.92 164.702 0.0
255 1 230.917 164.705 3.13317
256 1 232.497 166.278 1.54887
257 1 234.072 164.702 0.0
258 1 234.055 164.72 3.15258
259 1 235.637 166.289 1.56249
260 1 163.136 169.442 1.55109
261 1 164.711 167.863 0.0
262 1 166.28 169.434 1.54762
263 1 164.714 167.866 3.13512
264 1 167.857 167.857 0.0
265 1 169.428 169.428 1.54575
266 1 167.856 167.856 3.1269
267 1 171.005 167.851 0.0
268 1 171.004 167.849 3.1237
269 1 172.577 169.423 1.54434
270 1 174.154 167.845 0.0
271 1 174.153 167.844 3.12148
272 1 175.728 169.418 1.54328
273 1 177.305 167.842 0.0
274 1 177.304 167.84 3.1199
275 1 178.88 169.416 1.54248
276 1 180.457 167.839 0.0
277 1 180.456 167.838 3.11875
278 1 182.033 169.414 1.54187
279 1 183.611 167.838 0.0
280 1 183.61 167.836 3.11787
281 1 185.187 169.412 1.54139
282 1 186.765 167.836 0.0
283 1 186.765 167.835 3.1172
284 1 188.342 169.411 1.54102
285 1 189.921 167.835 0.0
286 1 189.92 167.834 3.11669
287 1 191.498 169.41 1.54075
288 1 193.076 167.834 0.0
289 1 193.076 167.833 3.11633
290 1 194.653 169.41 1.54057
291 1 196.231 167.834 0.0
292 1 196.231 167.833 3.11611
293 1 197.809 169.409 1.54047
294 1 199.387 167.834 0.0
295 1 199.387 167.832 3.11601
296 1 200.965 169.409 1.54046
297 1 202.543 167.834 0.0
298 1 202.543 167.832 3.11606
299 1 204.121 169.409 1.54052
300 1 205.698 167.834 0.0
301 1 205.699 167.833 3.11624
302 1 207.277 169.41 1.54068
303 1 208.854 167.835 0.0
304 1 208.854 167.833 3.11656
305 1 210.432 169.411 1.54092
306 1 212.009 167.836 0.0
307 1 212.009 167.834 3.11702
308 1 213.587 169.412 1.54125
309 1 215.164 167.837 0.0
310 1 215.164 167.835 3.11765
311 1 216.742 169.413 1.54169
312 1 218.318 167.839 0.0
313 1 218.319 167.837 3.11846
314 1 219.896 169.414 1.54226
315 1 221.471 167.841 0.0
316 1 221.472 167.839 3.11953
317 1 223.049 169.417 1.54299
318 1 224.623 167.843 0.0
319 1 224.625 167.841 3.12092
320 1 226.201 169.419 1.54392
321 1 227.775 167.846 0.0
322 1 227.776 167.844 3.12273
323 1 229.353 169.422 1.54508
324 1 230.925 167.85 0.0
325 1 230.926 167.848 3.12554
326 1 232.501 169.426 1.54663
327 1 234.073 167.853 0.0
328 1 234.071 167.856 3.1328
329 1 235.647 169.432 1.54909
330 1 237.221 167.856 0.0
331 1 237.203 167.873 3.15306
332 1 238.781 169.446 1.5642
333 1 159.976 172.585 1.55747
334 1 158.397 174.152 0.0
335 1 158.416 174.17 3.15093
336 1 161.552 171.012 0.0
337 1 161.558 171.022 3.13986
338 1 163.124 172.585 1.54771
339 1 161.545 174.158 0.0
340 1 161.546 174.159 3.12993
341 1 164.702 171.01 0.0
342 1 164.702 171.01 3.12756
343 1 166.273 172.581 1.54572
344 1 164.695 174.157 0.0
345 1 164.694 174.156 3.12405
346 1 167.851 171.005 0.0
347 1 167.849 171.004 3.1237
348 1 169.423 172.577 1.54434
349 1 167.845 174.154 0.0
350 1 167.844 174.153 3.12148
351 1 171.0 171.0 0.0
352 1 170.999 170.999 3.12137
353 1 174.151 170.996 0.0
354 1 174.15 170.995 3.11964
355 1 170.996 174.151 0.0
356 1 170.995 174.15 3.11964
357 1 172.573 172.573 1.54321
358 1 174.148 174.148 0.0
359 1 174.147 174.147 3.11818
360 1 177.303 170.993 0.0
361 1 177.302 170.992 3.1183
362 1 175.725 172.57 1.5423
363 1 177.301 174.146 0.0
364 1 177.3 174.144 3.11701
365 1 180.456 170.991 0.0
366 1 180.455 170.99 3.11727
367 1 178.878 172.568 1.54159
368 1 180.454 174.144 0.0
369 1 180.454 174.143 3.11608
370 1 183.61 170.989 0.0
371 1 183.609 170.988 3.11647
372 1 182.032 172.566 1.54102
373 1 183.609 174.142 0.0
374 1 183.608 174.141 3.11535
375 1 186.765 170.988 0.0
376 1 186.764 170.987 3.11586
377 1 185.186 172.565 1.54058
378 1 186.764 174.141 0.0
379 1 186.763 174.14 3.11478
380 1 189.92 170.987 0.0
381 1 189.919 170.986 3.1154
382 1 188.342 172.564 1.54025
383 1 189.919 174.14 0.0
384 1 189.919 174.14 3.11436
385 1 193.075 170.987 0.0
386 1 193.075 170.985 3.11507
387 1 191.497 172.563 1.54
388 1 193.075 174.14 0.0
389 1 193.075 174.139 3.11405
390 1 196.231 170.986 0.0
391 1 196.231 170.985 3.11487
392 1 194.653 172.563 1.53984
393 1 196.231 174.139 0.0
394 1 196.231 174.139 3.11387
395 1 199.387 170.986 0.0
396 1 199.387 170.985 3.11479
397 1 197.809 172.562 1.53975
398 1 199.387 174.139 0.0
399 1 199.387 174.139 3.11379
400 1 202.543 170.986 0.0
401 1 202.543 170.985 3.11482
402 1 200.965 172.562 1.53973
403 1 202.544 174.139 0.0
404 1 202.544 174.139 3.11382
405 1 205.699 170.986 0.0
406 1 205.699 170.985 3.11498
407 1 204.121 172.562 1.53979
408 1 205.7 174.14 0.0
409 1 205.7 174.139 3.11396
410 1 208.855 170.987 0.0
411 1 208.855 170.986 3.11526
412 1 207.277 172.563 1.53993
413 1 208.856 174.14 0.0
414 1 208.856 174.139 3.11422
415 1 212.01 170.987 0.0
416 1 212.011 170.986 3.11568
417 1 210.433 172.563 1.54014
418 1 212.011 174.14 0.0
419 1 212.012 174.14 3.11459
420 1 215.165 170.988 0.0
421 1 215.166 170.987 3.11623
422 1 213.589 172.564 1.54044
423 1 215.167 174.141 0.0
424 1 215.167 174.14 3.1151
425 1 218.32 170.99 0.0
426 1 218.321 170.988 3.11696
427 1 216.744 172.565 1.54084
428 1 218.322 174.142 0.0
429 1 218.322 174.141 3.11575
430 1 221.474 170.991 0.0
431 1 221.475 170.99 3.11789
432 1 219.898 172.566 1.54135
433 1 221.476 174.144 0.0
434 1 221.477 174.142 3.11659
435 1 224.627 170.993 0.0
436 1 224.628 170.992 3.11907
437 1 223.052 172.568 1.542
438 1 224.629 174.145 0.0
439 1 224.63 174.144 3.11763
440 1 227.778 170.996 0.0
441 1 227.78 170.994 3.12057
442 1 226.204 172.57 1.54281
443 1 227.781 174.147 0.0
444 1 227.783 174.146 3.11895
445 1 230.929 170.999 0.0
446 1 230.93 170.997 3.12259
447 1 229.356 172.572 1.54384
448 1 230.932 174.15 0.0
449 1 230.934 174.149 3.12065
450 1 234.076 171.003 0.0
451 1 234.078 171.002 3.12575
452 1 232.505 172.576 1.54516
453 1 234.08 174.154 0.0
454 1 234.082 174.153 3.12299
455 1 237.22 171.01 0.0
456 1 237.218 171.013 3.13407
457 1 235.651 172.582 1.54702
458 1 237.227 174.16 0.0
459 1 237.228 174.16 3.12692
460 1 240.361 171.018 0.0
461 1 240.34 171.041 3.15892
462 1 238.794 172.591 1.55056
463 1 240.376 174.163 0.0
464 1 240.37 174.173 3.13926
465 1 156.845 175.747 1.56619
466 1 159.973 175.734 1.54856
467 1 158.403 177.312 0.0
468 1 158.405 177.317 3.13522
469 1 163.118 175.732 1.54612
470 1 161.545 177.309 0.0
471 1 161.543 177.308 3.12536
472 1 166.268 175.73 1.5445
473 1 164.692 177.307 0.0
474 1 164.69 177.306 3.12199
475 1 169.418 175.728 1.54328
476 1 167.842 177.305 0.0
477 1 167.84 177.304 3.1199
478 1 170.993 177.303 0.0
479 1 170.992 177.302 3.1183
480 1 172.57 175.725 1.5423
481 1 174.146 177.301 0.0
482 1 174.144 177.3 3.11701
483 1 175.723 175.723 1.5415
484 1 177.299 177.299 0.0
485 1 177.298 177.298 3.11596
486 1 178.876 175.721 1.54086
487 1 180.453 177.297 0.0
488 1 180.452 177.297 3.11511
489 1 182.031 175.72 1.54034
490 1 183.608 177.296 0.0
491 1 183.607 177.295 3.11444
492 1 185.186 175.718 1.53994
493 1 186.763 177.295 0.0
494 1 186.763 177.295 3.11391
495 1 188.341 175.718 1.53963
496 1 189.919 177.295 0.0
497 1 189.918 177.294 3.11351
498 1 191.497 175.717 1.5394
499 1 193.075 177.294 0.0
500 1 193.075 177.294 3.11323
501 1 194.653 175.717 1.53925
502 1 196.231 177.294 0.0
503 1 196.231 177.293 3.11305
504 1 197.809 175.716 1.53916
505 1 199.387 177.294 0.0
506 1 199.387 177.293 3.11298
507 1 200.966 175.716 1.53915
508 1 202.544 177.294 0.0
509 1 202.544 177.293 3.11301
510 1 204.122 175.716 1.5392
511 1 205.7 177.294 0.0
512 1 205.7 177.293 3.11313
513 1 207.278 175.717 1.53932
514 1 208.856 177.294 0.0
515 1 208.857 177.293 3.11337
516 1 210.434 175.717 1.53952
517 1 212.012 177.295 0.0
518 1 212.013 177.294 3.11371
519 1 213.59 175.718 1.53979
520 1 215.168 177.295 0.0
521 1 215.168 177.294 3.11418
522 1 216.745 175.718 1.54015
523 1 218.323 177.296 0.0
524 1 218.324 177.295 3.11478
525 1 219.9 175.719 1.54062
526 1 221.477 177.297 0.0
527 1 221.478 177.296 3.11554
528 1 223.054 175.721 1.5412
529 1 224.631 177.298 0.0
530 1 224.632 177.297 3.11649
531 1 226.207 175.722 1.54193
532 1 227.783 177.3 0.0
533 1 227.785 177.299 3.11767
534 1 229.358 175.724 1.54283
535 1 230.934 177.303 0.0
536 1 230.936 177.301 3.11916
537 1 232.508 175.728 1.54396
538 1 234.084 177.306 0.0
539 1 234.086 177.304 3.12106
540 1 235.657 175.732 1.54537
541 1 237.233 177.309 0.0
542 1 237.234 177.308 3.12372
543 1 238.804 175.736 1.5474
544 1 240.381 177.31 0.0
545 1 240.38 177.312 3.12966
546 1 241.95 175.738 1.55706
547 1 243.526 177.306 0.0
548 1 243.507 177.324 3.15066
549 1 156.832 178.893 1.55312
550 1 155.252 180.46 0.0
551 1 155.262 180.472 3.14574
552 1 159.971 178.887 1.54733
553 1 158.398 180.464 0.0
554 1 158.397 180.465 3.12874
555 1 163.116 178.884 1.54511
556 1 161.542 180.461 0.0
557 1 161.54 180.461 3.12349
558 1 166.265 178.882 1.54361
559 1 164.69 180.459 0.0
560 1 164.688 180.458 3.12068
561 1 169.416 178.88 1.54248
562 1 167.839 180.457 0.0
563 1 167.838 180.456 3.11875
564 1 170.991 180.456 0.0
565 1 170.99 180.455 3.11727
566 1 172.568 178.878 1.54159
567 1 174.144 180.454 0.0
568 1 174.143 180.454 3.11608
569 1 175.721 178.876 1.54086
570 1 177.297 180.453 0.0
571 1 177.297 180.452 3.11511
572 1 178.875 178.875 1.54026
573 1 180.452 180.452 0.0
574 1 180.451 180.451 3.11433
575 1 182.03 178.874 1.53979
576 1 183.607 180.451 0.0
577 1 183.606 180.45 3.1137
578 1 185.185 178.873 1.53941
579 1 186.762 180.45 0.0
580 1 186.762 180.45 3.1132
581 1 188.34 178.872 1.53912
582 1 189.918 180.45 0.0
583 1 189.918 180.449 3.11283
584 1 191.496 178.872 1.53891
585 1 193.075 180.449 0.0
586 1 193.074 180.449 3.11256
587 1 194.653 178.871 1.53877
588 1 196.231 180.449 0.0
589 1 196.231 180.448 3.11239
590 1 197.809 178.871 1.53869
591 1 199.387 180.449 0.0
592 1 199.387 180.448 3.11232
593 1 200.966 178.871 1.53867
594 1 202.544 180.449 0.0
595 1 202.544 180.448 3.11234
596 1 204.122 178.871 1.53872
597 1 205.7 180.449 0.0
598 1 205.701 180.448 3.11246
599 1 207.279 178.871 1.53883
600 1 208.857 180.449 0.0
601 1 208.857 180.449 3.11268
602 1 210.435 178.872 1.53901
603 1 212.013 180.449 0.0
604 1 212.013 180.449 3.113
605 1 213.591 178.872 1.53926
606 1 215.169 180.45 0.0
607 1 215.169 180.449 3.11343
608 1 216.746 178.873 1.5396
609 1 218.324 180.45 0.0
610 1 218.325 180.45 3.11399
611 1 219.901 178.873 1.54003
612 1 221.479 180.451 0.0
613 1 221.479 180.451 3.1147
614 1 223.055 178.874 1.54056
615 1 224.632 180.452 0.0
616 1 224.633 180.452 3.11558
617 1 226.208 178.876 1.54122
618 1 227.785 180.454 0.0
619 1 227.786 180.453 3.11666
620 1 229.361 178.878 1.54204
621 1 230.937 180.456 0.0
622 1 230.938 180.455 3.11801
623 1 232.511 178.88 1.54306
624 1 234.087 180.458 0.0
625 1 234.089 180.457 3.1197
626 1 235.66 178.883 1.54433
627 1 237.235 180.461 0.0
628 1 237.237 180.459 3.12193
629 1 238.808 178.885 1.54603
630 1 240.38 180.463 0.0
631 1 240.382 180.463 3.12553
632 1 241.95 178.888 1.54856
633 1 243.518 180.467 0.0
634 1 243.515 180.473 3.13597
635 1 245.076 178.903 1.56637
636 1 153.695 182.049 1.56429
637 1 156.825 182.04 1.54911
638 1 155.256 183.618 0.0
639 1 155.258 183.622 3.13572
640 1 159.968 182.039 1.54608
641 1 158.396 183.616 0.0
642 1 158.393 183.616 3.12585
643 1 163.114 182.036 1.54428
644 1 161.54 183.614 0.0
645 1 161.538 183.614 3.12208
646 1 166.263 182.035 1.54292
647 1 164.688 183.613 0.0
648 1 164.686 183.612 3.11966
649 1 169.414 182.033 1.54187
650 1 167.838 183.611 0.0
651 1 167.836 183.61 3.11787
652 1 170.989 183.61 0.0
653 1 170.988 183.609 3.11647
654 1 172.566 182.032 1.54102
655 1 174.142 183.609 0.0
656 1 174.141 183.608 3.11535
657 1 175.72 182.031 1.54034
658 1 177.296 183.608 0.0
659 1 177.295 183.607 3.11444
660 1 178.874 182.03 1.53979
661 1 180.451 183.607 0.0
662 1 180.45 183.606 3.1137
663 1 182.029 182.029 1.53934
664 1 183.606 183.606 0.0
665 1 183.606 183.606 3.1131
666 1 185.184 182.028 1.53899
667 1 186.762 183.606 0.0
668 1 186.762 183.605 3.11263
669 1 188.34 182.027 1.53872
670 1 189.918 183.605 0.0
671 1 189.918 183.605 3.11227
672 1 191.496 182.027 1.53851
673 1 193.074 183.605 0.0
674 1 193.074 183.604 3.11202
675 1 194.653 182.027 1.53838
676 1 196.231 183.605 0.0
677 1 196.231 183.604 3.11186
678 1 197.809 182.026 1.5383
679 1 199.388 183.604 0.0
680 1 199.388 183.604 3.11179
681 1 200.966 182.026 1.53828
682 1 202.544 183.604 0.0
683 1 202.544 183.604 3.11181
684 1 204.122 182.026 1.53833
685 1 205.701 183.604 0.0
686 1 205.701 183.604 3.11192
687 1 207.279 182.027 1.53843
688 1 208.857 183.605 0.0
689 1 208.857 183.604 3.11212
690 1 210.435 182.027 1.5386
691 1 212.013 183.605 0.0
692 1 212.014 183.604 3.11242
693 1 213.591 182.027 1.53884
694 1 215.169 183.605 0.0
695 1 215.17 183.605 3.11283
696 1 216.747 182.028 1.53915
697 1 218.325 183.606 0.0
698 1 218.325 183.605 3.11336
699 1 219.902 182.028 1.53955
700 1 221.48 183.606 0.0
701 1 221.48 183.606 3.11403
702 1 223.056 182.029 1.54005
703 1 224.634 183.607 0.0
704 1 224.634 183.607 3.11485
705 1 226.21 182.03 1.54067
706 1 227.787 183.608 0.0
707 1 227.788 183.608 3.11587
708 1 229.362 182.032 1.54143
709 1 230.938 183.61 0.0
710 1 230.94 183.609 3.11713
711 1 232.513 182.034 1.54238
712 1 234.089 183.612 0.0
713 1 234.091 183.611 3.11872
714 1 235.663 182.036 1.5436
715 1 237.237 183.614 0.0
716 1 237.239 183.613 3.12083
717 1 238.809 182.038 1.54524
718 1 240.382 183.617 0.0
719 1 240.384 183.617 3.12397
720 1 241.951 182.043 1.54776
721 1 243.523 183.621 0.0
722 1 243.523 183.623 3.13008
723 1 245.086 182.05 1.55465
724 1 246.663 183.619 0.0
725 1 246.651 183.635 3.15028
726 1 153.691 185.199 1.55557
727 1 152.116 186.767 0.0
728 1 152.13 186.786 3.15471
729 1 156.824 185.194 1.54816
730 1 155.254 186.772 0.0
731 1 155.253 186.774 3.13118
732 1 159.966 185.192 1.54544
733 1 158.394 186.77 0.0
734 1 158.391 186.77 3.12452
735 1 163.112 185.19 1.54369
736 1 161.538 186.768 0.0
737 1 161.536 186.768 3.12116
738 1 166.261 185.189 1.54239
739 1 164.686 186.767 0.0
740 1 164.684 186.766 3.1189
741 1 169.412 185.187 1.54139
742 1 167.836 186.765 0.0
743 1 167.835 186.765 3.1172
744 1 170.988 186.765 0.0
745 1 170.987 186.764 3.11586
746 1 172.565 185.186 1.54058
747 1 174.141 186.764 0.0
748 1 174.14 186.763 3.11478
749 1 175.718 185.186 1.53994
750 1 177.295 186.763 0.0
751 1 177.295 186.763 3.11391
752 1 178.873 185.185 1.53941
753 1 180.45 186.762 0.0
754 1 180.45 186.762 3.1132
755 1 182.028 185.184 1.53899
756 1 183.606 186.762 0.0
757 1 183.605 186.762 3.11263
758 1 185.184 185.184 1.53865
759 1 186.761 186.761 0.0
760 1 186.761 186.761 3.11218
761 1 188.34 185.183 1.53839
762 1 189.918 186.761 0.0
763 1 189.917 186.761 3.11183
764 1 191.496 185.183 1.5382
765 1 193.074 186.761 0.0
766 1 193.074 186.761 3.11159
767 1 194.652 185.183 1.53806
768 1 196.231 186.761 0.0
769 1 196.231 186.76 3.11143
770 1 197.809 185.182 1.53799
771 1 199.388 186.761 0.0
772 1 199.388 186.76 3.11136
773 1 200.966 185.182 1.53798
774 1 202.544 186.761 0.0
775 1 202.544 186.76 3.11138
776 1 204.123 185.182 1.53802
777 1 205.701 186.761 0.0
778 1 205.701 186.76 3.11149
779 1 207.279 185.182 1.53812
780 1 208.858 186.761 0.0
781 1 208.858 186.76 3.11168
782 1 210.436 185.183 1.53827
783 1 212.014 186.761 0.0
784 1 212.014 186.761 3.11197
785 1 213.592 185.183 1.5385
786 1 215.17 186.761 0.0
787 1 215.17 186.761 3.11236
788 1 216.748 185.183 1.5388
789 1 218.325 186.762 0.0
790 1 218.326 186.761 3.11287
791 1 219.903 185.184 1.53917
792 1 221.48 186.762 0.0
793 1 221.481 186.762 3.1135
794 1 223.057 185.184 1.53964
795 1 224.634 186.763 0.0
796 1 224.635 186.762 3.11429
797 1 226.211 185.185 1.54023
798 1 227.788 186.764 0.0
799 1 227.789 186.763 3.11526
800 1 229.364 185.186 1.54095
801 1 230.94 186.765 0.0
802 1 230.941 186.764 3.11647
803 1 232.515 185.188 1.54186
804 1 234.09 186.766 0.0
805 1 234.092 186.766 3.11799
806 1 235.665 185.19 1.54301
807 1 237.239 186.768 0.0
808 1 237.241 186.768 3.11997
809 1 238.812 185.192 1.54453
810 1 240.385 186.771 0.0
811 1 240.387 186.77 3.12273
812 1 241.955 185.196 1.54662
813 1 243.528 186.774 0.0
814 1 243.53 186.774 3.12725
815 1 245.095 185.199 1.55027
816 1 246.669 186.773 0.0
817 1 246.662 186.779 3.14054
818 1 153.685 188.35 1.55191
819 1 152.116 189.925 0.0
820 1 152.116 189.937 3.14318
821 1 156.821 188.348 1.54729
822 1 155.251 189.926 0.0
823 1 155.247 189.927 3.12846
824 1 159.964 188.346 1.5449
825 1 158.392 189.924 0.0
826 1 158.389 189.924 3.12347
827 1 163.111 188.344 1.54323
828 1 161.537 189.923 0.0
829 1 161.535 189.922 3.12047
830 1 166.26 188.343 1.54199
831 1 164.685 189.921 0.0
832 1 164.683 189.921 3.11833
833 1 169.411 188.342 1.54102
834 1 167.835 189.921 0.0
835 1 167.834 189.92 3.11669
836 1 170.987 189.92 0.0
837 1 170.986 189.919 3.1154
838 1 172.564 188.342 1.54025
839 1 174.14 189.919 0.0
840 1 174.14 189.919 3.11436
841 1 175.718 188.341 1.53963
842 1 177.295 189.919 0.0
843 1 177.294 189.918 3.11351
844 1 178.872 188.34 1.53912
845 1 180.45 189.918 0.0
846 1 180.449 189.918 3.11283
847 1 182.027 188.34 1.53872
848 1 183.605 189.918 0.0
849 1 183.605 189.918 3.11227
850 1 185.183 188.34 1.53839
851 1 186.761 189.918 0.0
852 1 186.761 189.917 3.11183
853 1 188.339 188.339 1.53814
854 1 189.917 189.917 0.0
855 1 189.917 189.917 3.1115
856 1 191.496 188.339 1.53795
857 1 193.074 189.917 0.0
858 1 193.074 189.917 3.11126
859 1 194.652 188.339 1.53782
860 1 196.231 189.917 0.0
861 1 196.231 189.917 3.11111
862 1 197.809 188.339 1.53775
863 1 199.388 189.917 0.0
864 1 199.388 189.917 3.11104
865 1 200.966 188.339 1.53774
866 1 202.544 189.917 0.0
867 1 202.545 189.917 3.11106
868 1 204.123 188.339 1.53777
869 1 205.701 189.917 0.0
870 1 205.701 189.917 3.11116
871 1 207.279 188.339 1.53787
872 1 208.858 189.917 0.0
873 1 208.858 189.917 3.11134
874 1 210.436 188.339 1.53802
875 1 212.014 189.917 0.0
876 1 212.014 189.917 3.11162
877 1 213.592 188.339 1.53824
878 1 215.17 189.917 0.0
879 1 215.171 189.917 3.112
880 1 216.748 188.339 1.53852
881 1 218.326 189.918 0.0
882 1 218.326 189.917 3.11249
883 1 219.903 188.34 1.53888
884 1 221.481 189.918 0.0
885 1 221.482 189.918 3.1131
886 1 223.058 188.34 1.53934
887 1 224.635 189.919 0.0
888 1 224.636 189.918 3.11386
889 1 226.212 188.341 1.53989
890 1 227.789 189.919 0.0
891 1 227.79 189.919 3.1148
892 1 229.365 188.342 1.54059
893 1 230.941 189.92 0.0
894 1 230.942 189.92 3.11597
895 1 232.516 188.343 1.54146
896 1 234.092 189.921 0.0
897 1 234.094 189.921 3.11744
898 1 235.666 188.345 1.54256
899 1 237.241 189.923 0.0
900 1 237.243 189.922 3.11933
901 1 238.814 188.347 1.544
902 1 240.388 189.925 0.0
903 1 240.391 189.924 3.12188
904 1 241.959 188.349 1.54596
905 1 243.532 189.926 0.0
906 1 243.534 189.926 3.12585
907 1 245.101 188.35 1.54905
908 1 246.672 189.927 0.0
909 1 246.67 189.929 3.13599
910 1 248.233 188.351 1.56387
911 1 153.678 191.504 1.54995
912 1 152.104 193.077 0.0
913 1 152.106 193.077 3.13806
914 1 156.818 191.502 1.54663
915 1 155.246 193.079 0.0
916 1 155.244 193.078 3.12714
917 1 159.962 191.5 1.54446
918 1 158.389 193.078 0.0
919 1 158.387 193.078 3.12278
920 1 163.109 191.499 1.54288
921 1 161.535 193.077 0.0
922 1 161.533 193.077 3.11997
923 1 166.259 191.498 1.54169
924 1 164.684 193.077 0.0
925 1 164.682 193.076 3.11792
926 1 169.41 191.498 1.54075
927 1 167.834 193.076 0.0
928 1 167.833 193.076 3.11633
929 1 170.987 193.075 0.0
930 1 170.985 193.075 3.11507
931 1 172.563 191.497 1.54
932 1 174.14 193.075 0.0
933 1 174.139 193.075 3.11405
934 1 175.717 191.497 1.5394
935 1 177.294 193.075 0.0
936 1 177.294 193.075 3.11323
937 1 178.872 191.496 1.53891
938 1 180.449 193.075 0.0
939 1 180.449 193.074 3.11256
940 1 182.027 191.496 1.53851
941 1 183.605 193.074 0.0
942 1 183.604 193.074 3.11202
943 1 185.183 191.496 1.5382
944 1 186.761 193.074 0.0
945 1 186.761 193.074 3.11159
946 1 188.339 191.496 1.53795
947 1 189.917 193.074 0.0
948 1 189.917 193.074 3.11126
949 1 191.496 191.496 1.53777
950 1 193.074 193.074 0.0
951 1 193.074 193.074 3.11103
952 1 194.652 191.495 1.53764
953 1 196.231 193.074 0.0
954 1 196.231 193.074 3.11088
955 1 197.809 191.495 1.53757
956 1 199.388 193.074 0.0
957 1 199.388 193.074 3.11081
958 1 200.966 191.495 1.53756
959 1 202.545 193.074 0.0
960 1 202.545 193.074 3.11083
961 1 204.123 191.495 1.53759
962 1 205.701 193.074 0.0
963 1 205.701 193.074 3.11092
964 1 207.28 191.495 1.53768
965 1 208.858 193.074 0.0
966 1 208.858 193.074 3.1111
967 1 210.436 191.495 1.53783
968 1 212.014 193.074 0.0
969 1 212.015 193.074 3.11138
970 1 213.593 191.496 1.53804
971 1 215.171 193.074 0.0
972 1 215.171 193.074 3.11174
973 1 216.748 191.496 1.53832
974 1 218.326 193.074 0.0
975 1 218.327 193.074 3.11222
976 1 219.904 191.496 1.53867
977 1 221.481 193.074 0.0
978 1 221.482 193.074 3.11282
979 1 223.059 191.496 1.53911
980 1 224.636 193.075 0.0
981 1 224.637 193.075 3.11356
982 1 226.213 191.497 1.53965
983 1 227.789 193.075 0.0
984 1 227.79 193.075 3.11448
985 1 229.366 191.497 1.54032
986 1 230.942 193.076 0.0
987 1 230.943 193.075 3.11562
988 1 232.518 191.498 1.54117
989 1 234.093 193.076 0.0
990 1 234.095 193.076 3.11704
991 1 235.668 191.499 1.54223
992 1 237.243 193.077 0.0
993 1 237.245 193.077 3.11887
994 1 238.817 191.501 1.54362
995 1 240.39 193.078 0.0
996 1 240.393 193.078 3.12134
997 1 241.963 191.502 1.54552
998 1 243.535 193.08 0.0
999 1 243.538 193.079 3.12511
1000 1 245.105 191.504 1.54861
1001 1 246.676 193.081 0.0
1002 1 246.675 193.083 3.13341
1003 1 248.237 191.507 1.55838
1004 1 150.542 194.652 1.56302
1005 1 153.675 194.654 1.54956
1006 1 152.108 196.23 0.0
1007 1 152.11 196.23 3.13642
1008 1 156.816 194.655 1.5462
1009 1 155.245 196.232 0.0
1010 1 155.243 196.231 3.12645
1011 1 159.961 194.655 1.54414
1012 1 158.388 196.232 0.0
1013 1 158.385 196.232 3.12231
1014 1 163.108 194.654 1.54264
1015 1 161.534 196.232 0.0
1016 1 161.532 196.232 3.11964
1017 1 166.258 194.654 1.54148
1018 1 164.683 196.232 0.0
1019 1 164.681 196.232 3.11765
1020 1 169.41 194.653 1.54057
1021 1 167.834 196.231 0.0
1022 1 167.833 196.231 3.11611
1023 1 170.986 196.231 0.0
1024 1 170.985 196.231 3.11487
1025 1 172.563 194.653 1.53984
1026 1 174.139 196.231 0.0
1027 1 174.139 196.231 3.11387
1028 1 175.717 194.653 1.53925
1029 1 177.294 196.231 0.0
1030 1 177.293 196.231 3.11305
1031 1 178.871 194.653 1.53877
1032 1 180.449 196.231 0.0
1033 1 180.448 196.231 3.11239
1034 1 182.027 194.653 1.53838
1035 1 183.605 196.231 0.0
1036 1 183.604 196.231 3.11186
1037 1 185.183 194.652 1.53806
1038 1 186.761 196.231 0.0
1039 1 186.76 196.231 3.11143
1040 1 188.339 194.652 1.53782
1041 1 189.917 196.231 0.0
1042 1 189.917 196.231 3.11111
1043 1 191.495 194.652 1.53764
1044 1 193.074 196.231 0.0
1045 1 193.074 196.231 3.11088
1046 1 194.652 194.652 1.53752
1047 1 196.231 196.231 0.0
1048 1 196.231 196.231 3.11073
1049 1 197.809 194.652 1.53745
1050 1 199.388 196.231 0.0
1051 1 199.388 196.231 3.11066
1052 1 200.966 194.652 1.53743
1053 1 202.545 196.231 0.0