ITEM: TIMESTEP
0
ITEM: NUMBER OF ATOMS
110501
ITEM: BOX BOUNDS ff ff ff
0.0000000000000000e+00 4.0000000000000000e+02
0.0000000000000000e+00 4.0000000000000000e+02
0.0000000000000000e+00 8.0000000000000000e+02
ITEM: ATOMS x y z type
182.315 154.082 0 1
182.299 154.054 4.03708 1
184.323 154.063 2.02357 1
186.344 154.061 0 1
186.339 154.044 4.03553 1
188.368 152.058 0 1
190.377 152.036 2.02794 1
188.362 154.052 2.02397 1
190.386 154.055 0 1
188.358 152.023 4.03939 1
190.379 154.036 4.03534 1
192.4 152.041 0 1
194.423 152.034 2.02349 1
192.402 154.045 2.02213 1
194.425 154.045 0 1
192.394 152.021 4.03635 1
194.423 154.033 4.03336 1
196.445 152.033 0 1
198.47 152.028 2.02382 1
196.447 154.039 2.021 1
198.468 154.041 0 1
196.446 152.018 4.03602 1
198.469 154.029 4.03319 1
200.49 152.032 0 1
202.511 152.028 2.02385 1
200.49 154.037 2.0212 1
202.511 154.042 0 1
200.49 152.012 4.03608 1
202.511 154.029 4.03323 1
204.536 152.034 0 1
206.558 152.036 2.02356 1
204.532 154.041 2.02103 1
206.554 154.047 0 1
204.535 152.019 4.03613 1
206.556 154.035 4.03348 1
208.581 152.044 0 1
210.603 152.04 2.0281 1
208.576 154.048 2.0222 1
210.592 154.059 0 1
208.587 152.024 4.03661 1
210.599 154.041 4.03559 1
212.611 152.065 0 1
212.614 154.059 2.02418 1
214.63 154.072 0 1
212.622 152.03 4.03991 1
214.636 154.055 4.03559 1
216.653 154.077 2.02313 1
218.679 154.077 0 1
218.685 154.064 4.03748 1
174.258 158.14 0 1
174.238 158.116 4.03557 1
178.275 156.103 2.02271 1
176.263 158.119 2.02254 1
178.276 158.11 0 1
178.273 158.101 4.0329 1
180.296 156.094 0 1
182.31 156.082 2.02256 1
180.295 158.102 2.02029 1
182.315 158.098 0 1
180.289 156.079 4.03414 1
182.31 158.087 4.03174 1
184.332 156.081 0 1
186.347 156.069 2.02122 1
184.331 158.088 2.02032 1
186.351 158.086 0 1
184.324 156.064 4.03322 1
186.347 158.075 4.0311 1
188.366 156.067 0 1
190.385 156.06 2.02094 1
188.368 158.078 2.01971 1
190.388 158.076 0 1
188.363 156.055 4.03297 1
190.386 158.067 4.03058 1
192.407 156.06 0 1
194.426 156.054 2.02007 1
192.408 158.071 2.0193 1
194.428 158.071 0 1
192.404 156.049 4.03196 1
194.427 158.063 4.02988 1
196.448 156.055 0 1
198.468 156.051 2.01972 1
196.448 158.067 2.01891 1
198.468 158.068 0 1
196.447 156.045 4.03116 1
198.468 158.06 4.02953 1
200.489 156.053 0 1
202.51 156.051 2.01973 1
200.488 158.066 2.01877 1
202.508 158.069 0 1
200.489 156.044 4.03109 1
202.509 158.061 4.02956 1
204.53 156.056 0 1
206.551 156.056 2.02011 1
204.528 158.068 2.01894 1
206.548 158.074 0 1
204.531 156.047 4.03123 1
206.549 158.065 4.02998 1
208.57 156.064 0 1
210.591 156.065 2.02107 1
208.568 158.075 2.0194 1
210.587 158.082 0 1
208.573 156.052 4.0321 1
210.589 158.073 4.03064 1
212.609 156.074 0 1
214.63 156.077 2.02089 1
212.607 158.084 2.01959 1
214.626 158.09 0 1
212.612 156.062 4.03297 1
214.629 158.082 4.03102 1
216.651 156.083 0 1
216.645 158.094 2.02008 1
216.654 156.073 4.03321 1
220.676 156.106 0 1
218.667 156.089 2.02224 1
218.66 158.106 0 1
220.682 158.105 2.02176 1
220.692 156.084 4.03507 1
218.667 158.092 4.03215 1
222.707 156.096 2.02737 1
222.696 158.112 0 1
224.714 158.115 2.023 1
222.704 158.098 4.03423 1
226.732 158.114 0 1
226.737 158.1 4.03797 1
170.203 160.135 2.02407 1
168.184 162.143 2.02336 1
170.214 162.156 0 1
170.196 162.137 4.03308 1
172.234 160.146 0 1
174.244 160.136 2.02277 1
172.223 162.147 2.02173 1
174.247 162.149 0 1
172.217 160.128 4.03464 1
174.236 162.137 4.03228 1
176.268 160.136 0 1
178.28 160.122 2.0202 1
176.262 162.141 2.02051 1
178.283 162.139 0 1
176.257 160.122 4.0326 1
178.276 162.13 4.03035 1
180.297 160.117 0 1
182.315 160.109 2.01925 1
180.298 162.13 2.01901 1
182.317 162.126 0 1
180.294 160.109 4.03063 1
182.314 162.119 4.02904 1
184.334 160.106 0 1
186.352 160.098 2.01902 1
184.335 162.119 2.01837 1
186.354 162.116 0 1
184.331 160.097 4.02988 1
186.351 162.11 4.02836 1
188.371 160.096 0 1
190.39 160.09 2.01856 1
188.372 162.11 2.01805 1
190.391 162.109 0 1
188.369 160.088 4.02931 1
190.39 162.103 4.02782 1
192.409 160.089 0 1
194.429 160.084 2.01826 1
192.41 162.104 2.01771 1
194.429 162.103 0 1
192.408 160.082 4.02878 1
194.428 162.098 4.02741 1
196.449 160.085 0 1
198.468 160.082 2.01808 1
196.449 162.1 2.01752 1
198.468 162.101 0 1
196.448 160.078 4.02837 1
198.468 162.096 4.0272 1
200.488 160.084 0 1
202.507 160.083 2.0181 1
200.487 162.1 2.01748 1
202.507 162.102 0 1
200.488 160.078 4.02825 1
202.507 162.097 4.02724 1
204.527 160.087 0 1
206.547 160.087 2.01833 1
204.526 162.102 2.01758 1
206.545 162.106 0 1
204.528 160.08 4.02844 1
206.546 162.101 4.02749 1
208.565 160.092 0 1
210.585 160.094 2.01857 1
208.565 162.107 2.01775 1
210.583 162.112 0 1
208.567 160.086 4.02886 1
210.585 162.107 4.02789 1
212.604 160.1 0 1
214.623 160.103 2.01892 1
212.603 162.115 2.01804 1
214.621 162.121 0 1
212.606 160.093 4.02932 1
214.623 162.114 4.02848 1
216.64 160.111 0 1
216.64 162.123 2.01859 1
216.645 160.102 4.03007 1
220.678 160.12 0 1
218.661 160.113 2.01982 1
218.658 162.129 0 1
220.677 162.131 2.01909 1
220.683 160.11 4.03134 1
218.661 162.122 4.02942 1
224.713 160.126 0 1
222.696 160.121 2.02036 1
222.694 162.137 0 1
224.71 162.139 2.02048 1
224.718 160.116 4.03332 1
222.698 162.129 4.03077 1
228.726 160.15 0 1
226.724 160.13 2.02294 1
226.72 162.151 0 1
228.741 162.148 2.023 1
228.746 160.126 4.03589 1
226.731 162.136 4.03311 1
230.748 162.158 0 1
230.766 162.14 4.03508 1
166.168 164.154 2.02316 1
164.154 166.168 2.02316 1
166.18 166.18 0 1
166.162 166.162 4.0324 1
168.196 164.167 0 1
170.203 164.158 2.02144 1
168.186 166.171 2.02135 1
170.207 166.175 0 1
168.177 164.148 4.03254 1
170.196 166.164 4.03128 1
172.226 164.162 0 1
174.241 164.156 2.02007 1
172.221 166.171 2.01985 1
174.242 166.172 0 1
172.215 164.15 4.03161 1
174.235 166.164 4.02974 1
176.263 164.156 0 1
178.279 164.15 2.01902 1
176.259 166.167 2.01873 1
178.28 166.166 0 1
176.256 164.148 4.03015 1
178.275 166.16 4.02836 1
180.3 164.147 0 1
182.317 164.14 2.0181 1
180.297 166.161 2.01796 1
182.317 166.159 0 1
180.295 164.141 4.02864 1
182.314 166.154 4.02723 1
184.336 164.137 0 1
186.354 164.132 2.01761 1
184.335 166.153 2.01735 1
186.355 166.151 0 1
184.333 164.132 4.02767 1
186.353 166.147 4.02648 1
188.373 164.13 0 1
190.391 164.125 2.0173 1
188.373 166.146 2.01697 1
190.392 166.145 0 1
188.371 164.124 4.02706 1
190.391 166.141 4.02598 1
192.411 164.124 0 1
194.43 164.12 2.01707 1
192.411 166.141 2.01673 1
194.43 166.141 0 1
192.41 164.119 4.02662 1
194.429 166.137 4.02566 1
196.449 164.12 0 1
198.468 164.118 2.01698 1
196.449 166.138 2.01659 1
198.468 166.139 0 1
196.448 164.116 4.02635 1
198.468 166.135 4.02551 1
200.487 164.12 0 1
202.506 164.119 2.01701 1
200.487 166.138 2.01656 1
202.506 166.14 0 1
200.487 164.115 4.02629 1
202.506 166.136 4.02554 1
204.525 164.122 0 1
206.545 164.123 2.01712 1
204.525 166.14 2.01662 1
206.544 166.143 0 1
204.526 164.117 4.02641 1
206.545 166.139 4.02573 1
208.563 164.127 0 1
210.583 164.128 2.01733 1
208.563 166.144 2.01677 1
210.582 166.148 0 1
208.564 164.122 4.0267 1
210.583 166.144 4.02608 1
212.601 164.133 0 1
214.62 164.135 2.01771 1
212.601 166.15 2.01703 1
214.619 166.154 0 1
212.603 164.128 4.02717 1
214.621 166.15 4.02664 1
216.639 164.141 0 1
216.639 166.156 2.0174 1
216.641 164.135 4.02789 1
220.675 164.148 0 1
218.658 164.143 2.01815 1
218.657 166.161 0 1
220.675 166.163 2.01806 1
220.678 164.142 4.02896 1
218.659 166.156 4.02749 1
224.707 164.158 0 1
222.693 164.15 2.01908 1
222.692 166.168 0 1
224.711 166.17 2.01922 1
224.714 164.149 4.03073 1
222.696 166.162 4.02883 1
228.739 164.164 0 1
226.726 164.158 2.02081 1
226.726 166.174 0 1
228.745 166.173 2.02043 1
228.75 164.152 4.03286 1
226.732 166.166 4.03068 1
232.767 164.169 0 1
230.76 164.161 2.02205 1
230.757 166.178 0 1
232.777 166.174 2.02187 1
232.785 164.151 4.03382 1
230.768 166.167 4.03238 1
234.783 166.183 0 1
234.801 166.165 4.03384 1
162.143 168.184 2.02336 1
160.135 170.203 2.02407 1
162.156 170.214 0 1
162.137 170.196 4.03308 1
164.167 168.196 0 1
166.171 168.186 2.02135 1
164.158 170.203 2.02144 1
166.175 170.207 0 1
164.148 168.177 4.03254 1
166.164 170.196 4.03128 1
168.19 168.19 0 1
170.203 168.186 2.01976 1
168.186 170.203 2.01976 1
170.204 170.204 0 1
168.179 168.179 4.03119 1
170.197 170.197 4.02941 1
172.222 168.187 0 1
174.239 168.184 2.01853 1
172.219 170.201 2.01844 1
174.239 170.201 0 1
172.215 168.18 4.02949 1
174.234 170.197 4.0278 1
176.259 168.184 0 1
178.277 168.18 2.01772 1
176.256 170.199 2.01754 1
178.277 170.198 0 1
176.254 168.179 4.02802 1
178.273 170.194 4.0266 1
180.297 168.179 0 1
182.315 168.174 2.01717 1
180.295 170.195 2.01696 1
182.315 170.193 0 1
180.294 168.174 4.0269 1
182.313 170.19 4.02573 1
184.335 168.172 0 1
186.354 168.168 2.01674 1
184.334 170.189 2.01655 1
186.354 170.188 0 1
184.333 168.168 4.02606 1
186.352 170.185 4.02509 1
188.373 168.166 0 1
190.392 168.163 2.01645 1
188.372 170.184 2.01624 1
190.392 170.183 0 1
188.372 168.163 4.02548 1
190.391 170.18 4.02466 1
192.411 168.162 0 1
194.43 168.159 2.01628 1
192.41 170.18 2.01604 1
194.43 170.18 0 1
192.41 168.158 4.0251 1
194.429 170.177 4.02438 1
196.449 168.159 0 1
198.468 168.158 2.0162 1
196.449 170.178 2.01593 1
198.468 170.179 0 1
196.448 168.156 4.02489 1
198.468 170.176 4.02426 1
200.487 168.159 0 1
202.506 168.158 2.01622 1
200.487 170.178 2.0159 1
202.506 170.179 0 1
200.487 168.155 4.02484 1
202.506 170.176 4.02429 1
204.525 168.16 0 1
206.544 168.161 2.01631 1
204.525 170.179 2.01595 1
206.544 170.182 0 1
204.525 168.157 4.02494 1
206.544 170.179 4.02445 1
208.563 168.164 0 1
210.582 168.166 2.0165 1
208.563 170.183 2.01608 1
210.582 170.186 0 1
208.564 168.161 4.02519 1
210.583 170.183 4.02477 1
212.601 168.169 0 1
214.62 168.171 2.01679 1
212.601 170.187 2.01629 1
214.62 170.191 0 1
212.602 168.166 4.02561 1
214.621 170.188 4.02527 1
216.638 168.175 0 1
216.639 170.192 2.01665 1
216.64 168.171 4.02627 1
220.675 168.181 0 1
218.657 168.177 2.01727 1
218.657 170.196 0 1
220.677 170.198 2.01721 1
220.678 168.177 4.0273 1
218.66 170.193 4.02605 1
224.71 168.187 0 1
222.694 168.183 2.01806 1
222.694 170.201 0 1
224.713 170.202 2.01794 1
224.715 168.181 4.02875 1
222.697 170.197 4.02717 1
228.744 168.19 0 1
226.729 168.187 2.01903 1
226.729 170.204 0 1
228.748 170.204 2.01894 1
228.751 168.183 4.03046 1
226.734 170.2 4.0286 1
232.774 168.193 0 1
230.763 168.189 2.02031 1
230.762 170.207 0 1
232.779 170.205 2.02042 1
232.785 168.182 4.03239 1
230.769 170.2 4.03043 1
236.796 168.2 0 1
234.792 168.189 2.0221 1
234.789 170.21 0 1
236.806 170.206 2.02298 1
236.814 168.182 4.03516 1
234.801 170.199 4.03281 1
238.805 170.219 0 1
238.829 170.199 4.03586 1
158.14 174.258 0 1
158.116 174.238 4.03557 1
160.146 172.234 0 1
162.147 172.223 2.02173 1
160.136 174.244 2.02277 1
162.149 174.247 0 1
160.128 172.217 4.03464 1
162.137 174.236 4.03228 1
164.162 172.226 0 1
166.171 172.221 2.01985 1
164.156 174.241 2.02007 1
166.172 174.242 0 1
164.15 172.215 4.03161 1
166.164 174.235 4.02974 1
168.187 172.222 0 1
170.201 172.219 2.01844 1
168.184 174.239 2.01853 1
170.201 174.239 0 1
168.18 172.215 4.02949 1
170.197 174.234 4.0278 1
172.22 172.22 0 1
174.236 172.217 2.01745 1
172.217 174.236 2.01745 1
174.236 174.236 0 1
172.215 172.215 4.02772 1
174.233 174.233 4.02633 1
176.256 172.217 0 1
178.274 172.214 2.0168 1
176.254 174.234 2.01672 1
178.274 174.233 0 1
176.253 172.213 4.02639 1
178.271 174.23 4.02527 1
180.294 172.213 0 1
182.313 172.21 2.01637 1
180.292 174.231 2.01623 1
182.313 174.23 0 1
180.292 172.21 4.02545 1
182.311 174.227 4.02453 1
184.333 172.209 0 1
186.352 172.206 2.01607 1
184.332 174.227 2.01591 1
186.352 174.226 0 1
184.331 172.206 4.02478 1
186.35 174.224 4.02401 1
188.372 172.205 0 1
190.391 172.202 2.01584 1
188.371 174.224 2.01569 1
190.391 174.223 0 1
188.371 172.202 4.0243 1
190.39 174.221 4.02366 1
192.41 172.201 0 1
194.429 172.199 2.01571 1
192.41 174.221 2.01553 1
194.429 174.221 0 1
192.41 172.199 4.02398 1
194.429 174.218 4.02343 1
196.449 172.2 0 1
198.468 172.198 2.01564 1
196.448 174.219 2.01544 1
198.468 174.22 0 1
196.448 172.197 4.0238 1
198.467 174.217 4.02333 1
200.487 172.199 0 1
202.506 172.199 2.01565 1
200.487 174.219 2.01542 1
202.506 174.22 0 1
200.487 172.197 4.02376 1
202.506 174.218 4.02335 1
204.525 172.201 0 1
206.544 172.201 2.01573 1
204.525 174.22 2.01546 1
206.545 174.222 0 1
204.525 172.198 4.02385 1
206.545 174.22 4.0235 1
208.563 172.204 0 1
210.583 172.205 2.01589 1
208.564 174.223 2.01557 1
210.583 174.225 0 1
208.564 172.201 4.02407 1
210.584 174.223 4.02378 1
212.602 172.207 0 1
214.621 172.209 2.01615 1
212.603 174.226 2.01576 1
214.622 174.229 0 1
212.603 172.205 4.02445 1
214.623 174.227 4.02423 1
216.64 172.212 0 1
216.641 174.23 2.01606 1
216.641 172.209 4.02505 1
220.677 172.217 0 1
218.659 172.214 2.01656 1
218.66 174.233 0 1
220.679 174.234 2.01648 1
220.68 172.214 4.02591 1
218.662 174.231 4.0249 1
224.714 172.22 0 1
222.696 172.218 2.01711 1
222.697 174.237 0 1
224.717 174.237 2.01705 1
224.717 172.217 4.02705 1
222.7 174.234 4.0258 1
228.748 172.222 0 1
226.733 172.22 2.01787 1
226.733 174.239 0 1
228.752 174.239 2.01788 1
228.753 172.218 4.02857 1
226.737 174.236 4.02701 1
232.779 172.224 0 1
230.766 172.221 2.01898 1
230.767 174.241 0 1
232.784 174.239 2.01908 1
232.786 172.217 4.03057 1
230.772 174.236 4.02862 1
236.803 172.226 0 1
234.795 172.222 2.02069 1
234.796 174.241 0 1
236.814 174.236 2.01999 1
236.817 172.215 4.03271 1
234.804 174.234 4.03039 1
240.845 172.206 0 1
238.825 172.22 2.02198 1
238.83 174.23 0 1
240.84 174.23 2.02146 1
240.852 172.204 4.03585 1
238.836 174.228 4.03241 1
158.119 176.263 2.02254 1
156.103 178.275 2.02271 1
158.11 178.276 0 1
158.101 178.273 4.0329 1
160.136 176.268 0 1
162.141 176.262 2.02051 1
160.122 178.28 2.0202 1
162.139 178.283 0 1
160.122 176.257 4.0326 1
162.13 178.276 4.03035 1
164.156 176.263 0 1
166.167 176.259 2.01873 1
164.15 178.279 2.01902 1
166.166 178.28 0 1
164.148 176.256 4.03015 1
166.16 178.275 4.02836 1
168.184 176.259 0 1
170.199 176.256 2.01754 1
168.18 178.277 2.01772 1
170.198 178.277 0 1
168.179 176.254 4.02802 1
170.194 178.273 4.0266 1
172.217 176.256 0 1
174.234 176.254 2.01672 1
172.214 178.274 2.0168 1
174.233 178.274 0 1
172.213 176.253 4.02639 1
174.23 178.271 4.02527 1
176.253 176.253 0 1
178.272 176.251 2.01616 1
176.251 178.272 2.01616 1
178.271 178.271 0 1
176.251 176.251 4.02521 1
178.269 178.269 4.02431 1
180.292 176.25 0 1
182.311 176.248 2.0158 1
180.29 178.269 2.01573 1
182.31 178.268 0 1
180.29 176.248 4.02437 1
182.308 178.266 4.02365 1
184.331 176.247 0 1
186.35 176.245 2.01555 1
184.329 178.266 2.01545 1
186.35 178.266 0 1
184.329 176.245 4.02379 1
186.348 178.264 4.0232 1
188.37 176.244 0 1
190.39 176.242 2.01538 1
188.369 178.264 2.01526 1
190.389 178.263 0 1
188.369 176.242 4.02339 1
190.388 178.262 4.02289 1
192.409 176.242 0 1
194.429 176.241 2.01527 1
192.409 178.262 2.01514 1
194.429 178.262 0 1
192.409 176.24 4.02313 1
194.428 178.26 4.02271 1
196.448 176.241 0 1
198.468 176.24 2.01523 1
196.448 178.261 2.01507 1
198.468 178.261 0 1
196.448 176.239 4.02299 1
198.467 178.259 4.02263 1
200.487 176.241 0 1
202.506 176.24 2.01524 1
200.487 178.261 2.01506 1
202.507 178.262 0 1
200.487 176.238 4.02295 1
202.507 178.26 4.02265 1
204.526 176.242 0 1
206.545 176.242 2.01531 1
204.526 178.262 2.01509 1
206.546 178.263 0 1
204.526 176.24 4.02303 1
206.546 178.261 4.02279 1
208.565 176.244 0 1
210.584 176.245 2.01544 1
208.566 178.264 2.01519 1
210.585 178.266 0 1
208.565 176.242 4.02323 1
210.586 178.264 4.02304 1
212.603 176.247 0 1
214.623 176.248 2.01567 1
212.605 178.267 2.01536 1
214.624 178.269 0 1
212.604 176.245 4.02358 1
214.625 178.267 4.02344 1
216.642 176.251 0 1
216.644 178.27 2.0156 1
216.644 176.248 4.02409 1
220.68 176.254 0 1
218.662 176.252 2.01599 1
218.663 178.272 0 1
220.683 178.273 2.01595 1
220.682 176.252 4.0248 1
218.665 178.27 4.024 1
224.718 176.257 0 1
222.7 176.255 2.01643 1
222.701 178.274 0 1
224.721 178.275 2.01643 1
224.72 176.254 4.02577 1
222.703 178.272 4.02478 1
228.753 176.258 0 1
226.737 176.257 2.01706 1
226.738 178.276 0 1
228.757 178.276 2.0171 1
228.757 176.255 4.02705 1
226.741 178.274 4.02581 1
232.785 176.258 0 1
230.771 176.257 2.01793 1
230.773 178.277 0 1
232.791 178.275 2.01781 1
232.791 176.254 4.02855 1
230.777 178.274 4.02707 1
236.818 176.253 0 1
234.803 176.256 2.01873 1
234.806 178.274 0 1
236.822 178.272 2.01858 1
236.823 176.25 4.03015 1
234.81 178.272 4.02852 1
240.842 176.247 0 1
238.831 176.25 2.01951 1
238.833 178.27 0 1
240.844 178.267 2.02076 1
240.85 176.242 4.03318 1
238.839 178.267 4.03069 1
242.847 176.247 2.02376 1
242.848 178.269 0 1
242.863 178.261 4.03528 1
154.082 182.315 0 1
154.054 182.299 4.03708 1
156.094 180.296 0 1
158.102 180.295 2.02029 1
156.082 182.31 2.02256 1
158.098 182.315 0 1
156.079 180.289 4.03414 1
158.087 182.31 4.03174 1
160.117 180.297 0 1
162.13 180.298 2.01901 1
160.109 182.315 2.01925 1
162.126 182.317 0 1
160.109 180.294 4.03063 1
162.119 182.314 4.02904 1
164.147 180.3 0 1
166.161 180.297 2.01796 1
164.14 182.317 2.0181 1
166.159 182.317 0 1
164.141 180.295 4.02864 1
166.154 182.314 4.02723 1
168.179 180.297 0 1
170.195 180.295 2.01696 1
168.174 182.315 2.01717 1
170.193 182.315 0 1
168.174 180.294 4.0269 1
170.19 182.313 4.02573 1
172.213 180.294 0 1
174.231 180.292 2.01623 1
172.21 182.313 2.01637 1
174.23 182.313 0 1
172.21 180.292 4.02545 1
174.227 182.311 4.02453 1
176.25 180.292 0 1
178.269 180.29 2.01573 1
176.248 182.311 2.0158 1
178.268 182.31 0 1
176.248 180.29 4.02437 1
178.266 182.308 4.02365 1
180.289 180.289 0 1
182.308 180.287 2.0154 1
180.287 182.308 2.0154 1
182.308 182.308 0 1
180.287 180.287 4.0236 1
182.306 182.306 4.02303 1
184.329 180.287 0 1
186.348 180.285 2.01518 1
184.327 182.306 2.01513 1
186.348 182.306 0 1
184.327 180.285 4.02307 1
186.347 182.304 4.0226 1
188.369 180.285 0 1
190.388 180.283 2.01503 1
188.368 182.304 2.01496 1
190.388 182.304 0 1
188.368 180.283 4.02272 1
190.387 182.303 4.02233 1
192.408 180.283 0 1
194.428 180.282 2.01495 1
192.408 182.303 2.01485 1
194.428 182.303 0 1
192.408 180.281 4.02249 1
194.427 182.302 4.02217 1
196.448 180.282 0 1
198.468 180.281 2.01491 1
196.448 182.302 2.0148 1
198.468 182.303 0 1
196.448 180.281 4.02237 1
198.468 182.301 4.0221 1
200.487 180.282 0 1
202.507 180.282 2.01492 1
200.488 182.303 2.01479 1
202.507 182.303 0 1
200.487 180.281 4.02235 1
202.508 182.302 4.02213 1
204.527 180.283 0 1
206.547 180.283 2.01499 1
204.527 182.303 2.01483 1
206.547 182.305 0 1
204.527 180.282 4.02242 1
206.548 182.303 4.02226 1
208.566 180.285 0 1
210.586 180.286 2.01511 1
208.567 182.305 2.01492 1
210.587 182.306 0 1
208.567 180.283 4.02261 1
210.588 182.305 4.02249 1
212.606 180.287 0 1
214.626 180.288 2.0153 1
212.607 182.307 2.01506 1
214.627 182.309 0 1
212.607 180.286 4.02292 1
214.628 182.307 4.02285 1
216.645 180.29 0 1
216.647 182.309 2.01528 1
216.647 180.288 4.02337 1
220.684 180.293 0 1
218.665 180.291 2.01558 1
218.667 182.311 0 1
220.687 182.312 2.01559 1
220.686 180.291 4.02399 1
218.668 182.31 4.02336 1
224.722 180.295 0 1
222.704 180.293 2.01596 1
222.706 182.313 0 1
224.726 182.314 2.016 1
224.725 180.293 4.02483 1
222.708 182.312 4.02405 1
228.759 180.296 0 1
226.742 180.295 2.01648 1
226.744 182.315 0 1
228.763 182.315 2.01653 1
228.762 180.294 4.02589 1
226.746 182.313 4.02495 1
232.794 180.295 0 1
230.778 180.295 2.01709 1
230.78 182.315 0 1
232.798 182.314 2.01719 1
232.797 180.293 4.02719 1
230.783 182.313 4.02608 1
236.824 180.292 0 1
234.811 180.293 2.01783 1
234.814 182.314 0 1
236.83 182.312 2.01835 1
236.829 180.29 4.02901 1
234.818 182.312 4.02763 1
240.846 180.289 0 1
238.838 180.29 2.01935 1
238.841 182.311 0 1
240.855 182.307 2.0205 1
240.856 180.284 4.03224 1
238.848 182.308 4.03011 1
244.854 180.288 0 1
242.859 180.283 2.02272 1
242.86 182.307 0 1
244.876 182.297 2.02399 1
244.877 180.274 4.03686 1
242.874 182.3 4.0338 1
154.063 184.323 2.02357 1
154.061 186.344 0 1
154.044 186.339 4.03553 1
156.081 184.332 0 1
158.088 184.331 2.02032 1
156.069 186.347 2.02122 1
158.086 186.351 0 1
156.064 184.324 4.03322 1
158.075 186.347 4.0311 1
160.106 184.334 0 1
162.119 184.335 2.01837 1
160.098 186.352 2.01902 1
162.116 186.354 0 1
160.097 184.331 4.02988 1
162.11 186.351 4.02836 1
164.137 184.336 0 1
166.153 184.335 2.01735 1
164.132 186.354 2.01761 1
166.151 186.355 0 1
164.132 184.333 4.02767 1
166.147 186.353 4.02648 1
168.172 184.335 0 1
170.189 184.334 2.01655 1
168.168 186.354 2.01674 1
170.188 186.354 0 1
168.168 184.333 4.02606 1
170.185 186.352 4.02509 1
172.209 184.333 0 1
174.227 184.332 2.01591 1
172.206 186.352 2.01607 1
174.226 186.352 0 1
172.206 184.331 4.02478 1
174.224 186.35 4.02401 1
176.247 184.331 0 1
178.266 184.329 2.01545 1
176.245 186.35 2.01555 1
178.266 186.35 0 1
176.245 184.329 4.02379 1
178.264 186.348 4.0232 1
180.287 184.329 0 1
182.306 184.327 2.01513 1
180.285 186.348 2.01518 1
182.306 186.348 0 1
180.285 184.327 4.02307 1
182.304 186.347 4.0226 1
184.327 184.327 0 1
186.347 184.326 2.01492 1
184.326 186.347 2.01492 1
186.346 186.346 0 1
184.326 184.326 4.02257 1
186.345 186.345 4.0222 1
188.367 184.325 0 1
190.387 184.324 2.01479 1
188.366 186.345 2.01475 1
190.387 186.345 0 1
188.366 184.324 4.02223 1
190.386 186.344 4.02193 1
192.408 184.324 0 1
194.427 184.323 2.01471 1
192.407 186.344 2.01465 1
194.427 186.345 0 1
192.407 184.323 4.02202 1
194.427 186.344 4.02178 1
196.448 184.324 0 1
198.468 184.323 2.01468 1
196.448 186.344 2.0146 1
198.468 186.344 0 1
196.447 184.322 4.02191 1
198.468 186.343 4.02172 1
200.488 184.324 0 1
202.508 184.324 2.0147 1
200.488 186.344 2.0146 1
202.508 186.345 0 1
200.488 184.323 4.0219 1
202.508 186.344 4.02175 1
204.528 184.325 0 1
206.548 184.325 2.01476 1
204.529 186.345 2.01463 1
206.549 186.346 0 1
204.528 184.323 4.02198 1
206.549 186.345 4.02188 1
208.568 184.326 0 1
210.588 184.327 2.01487 1
208.569 186.346 2.01472 1
210.589 186.347 0 1
208.569 184.325 4.02215 1
210.59 186.346 4.0221 1
212.608 184.328 0 1
214.629 184.328 2.01505 1
212.61 186.348 2.01486 1
214.63 186.349 0 1
212.609 184.327 4.02244 1
214.631 186.348 4.02244 1
216.648 184.33 0 1
216.65 186.35 2.01506 1
216.65 184.329 4.02285 1
220.688 184.332 0 1
218.669 184.331 2.0153 1
218.67 186.351 0 1
220.691 186.351 2.01535 1
220.69 184.331 4.02343 1
218.671 186.35 4.02292 1
224.727 184.334 0 1
222.709 184.333 2.01564 1
222.71 186.353 0 1
224.73 186.353 2.01573 1
224.73 184.332 4.02418 1
222.712 186.351 4.02357 1
228.766 184.335 0 1
226.747 184.334 2.01608 1
226.749 186.354 0 1
228.769 186.354 2.01623 1
228.768 184.333 4.02516 1
226.752 186.353 4.02441 1
232.801 184.334 0 1
230.785 184.334 2.01666 1
230.787 186.354 0 1
232.806 186.354 2.01695 1
232.805 184.333 4.02649 1
230.79 186.353 4.02554 1
236.833 184.333 0 1
234.819 184.333 2.01756 1
234.822 186.354 0 1
236.84 186.352 2.01805 1
236.838 184.33 4.02844 1
234.827 186.352 4.02713 1
240.859 184.329 0 1
238.849 184.33 2.01906 1
238.854 186.351 0 1
240.87 186.346 2.01948 1
240.869 184.325 4.0312 1
238.86 186.348 4.0293 1
244.885 184.312 0 1
242.875 184.322 2.02105 1
242.882 186.341 0 1
244.894 186.334 2.02204 1
244.896 184.311 4.03591 1
242.89 186.339 4.03233 1
246.893 184.305 2.02788 1
246.895 186.327 0 1
246.915 186.321 4.03702 1
152.058 188.368 0 1
154.052 188.362 2.02397 1
152.036 190.377 2.02794 1
154.055 190.386 0 1
152.023 188.358 4.03939 1
154.036 190.379 4.03534 1
156.067 188.366 0 1
158.078 188.368 2.01971 1
156.06 190.385 2.02094 1
158.076 190.388 0 1
156.055 188.363 4.03297 1
158.067 190.386 4.03058 1
160.096 188.371 0 1
162.11 188.372 2.01805 1
160.09 190.39 2.01856 1
162.109 190.391 0 1
160.088 188.369 4.02931 1
162.103 190.39 4.02782 1
164.13 188.373 0 1
166.146 188.373 2.01697 1
164.125 190.391 2.0173 1
166.145 190.392 0 1
164.124 188.371 4.02706 1
166.141 190.391 4.02598 1
168.166 188.373 0 1
170.184 188.372 2.01624 1
168.163 190.392 2.01645 1
170.183 190.392 0 1
168.163 188.372 4.02548 1
170.18 190.391 4.02466 1
172.205 188.372 0 1
174.224 188.371 2.01569 1
172.202 190.391 2.01584 1
174.223 190.391 0 1
172.202 188.371 4.0243 1
174.221 190.39 4.02366 1
176.244 188.37 0 1
178.264 188.369 2.01526 1
176.242 190.39 2.01538 1
178.263 190.389 0 1
176.242 188.369 4.02339 1
178.262 190.388 4.02289 1
180.285 188.369 0 1
182.304 188.368 2.01496 1
180.283 190.388 2.01503 1
182.304 190.388 0 1
180.283 188.368 4.02272 1
182.303 190.387 4.02233 1
184.325 188.367 0 1
186.345 188.366 2.01475 1
184.324 190.387 2.01479 1
186.345 190.387 0 1
184.324 188.366 4.02223 1
186.344 190.386 4.02193 1
188.366 188.366 0 1
190.386 188.365 2.01462 1
188.365 190.386 2.01462 1
190.386 190.386 0 1
188.365 188.365 4.0219 1
190.386 190.386 4.02167 1
192.407 188.365 0 1
194.427 188.365 2.01455 1
192.407 190.386 2.01452 1
194.427 190.386 0 1
192.406 188.365 4.0217 1
194.427 190.385 4.02152 1
196.448 188.365 0 1
198.468 188.365 2.01452 1
196.448 190.386 2.01447 1
198.468 190.386 0 1
196.447 188.364 4.0216 1
198.468 190.385 4.02146 1
200.488 188.365 0 1
202.509 188.365 2.01454 1
200.489 190.386 2.01446 1
202.509 190.386 0 1
200.488 188.365 4.02158 1
202.509 190.386 4.0215 1
204.529 188.366 0 1
206.549 188.366 2.0146 1
204.53 190.387 2.0145 1
206.55 190.387 0 1
204.529 188.365 4.02166 1
206.55 190.387 4.02162 1
208.57 188.367 0 1
210.59 188.368 2.01471 1
208.571 190.387 2.01459 1
210.591 190.388 0 1
208.57 188.366 4.02183 1
210.592 190.388 4.02184 1
212.61 188.369 0 1
214.631 188.369 2.01488 1
212.612 190.389 2.01472 1
214.632 190.389 0 1
212.611 188.368 4.02211 1
214.633 190.389 4.02217 1
216.651 188.37 0 1
216.653 190.39 2.01493 1
216.652 188.369 4.02251 1
220.692 188.372 0 1
218.672 188.371 2.01512 1
218.673 190.391 0 1
220.694 190.391 2.01521 1
220.693 188.371 4.02306 1
218.674 190.39 4.02264 1
224.732 188.373 0 1
222.713 188.372 2.01544 1
222.714 190.392 0 1
224.735 190.392 2.01558 1
224.734 188.372 4.02379 1
222.716 190.391 4.02328 1
228.771 188.374 0 1
226.753 188.373 2.01588 1
226.754 190.393 0 1
228.775 190.393 2.01609 1
228.774 188.373 4.02477 1
226.757 190.392 4.02412 1
232.809 188.374 0 1
230.791 188.373 2.01648 1
230.793 190.393 0 1
232.814 190.393 2.0168 1
232.813 188.372 4.02609 1
230.797 190.392 4.02525 1
236.844 188.372 0 1
234.828 188.373 2.01733 1
234.831 190.393 0 1
236.851 190.391 2.01771 1
236.849 188.371 4.02786 1
234.836 190.391 4.02674 1
240.876 188.366 0 1
238.862 188.37 2.01845 1
238.866 190.389 0 1
240.884 190.386 2.01899 1
240.883 188.365 4.03023 1
238.872 190.388 4.02871 1
244.899 188.356 0 1
242.891 188.362 2.0201 1
242.896 190.383 0 1
244.911 190.377 2.02119 1
244.911 188.354 4.03372 1
242.905 190.382 4.03146 1
246.91 188.348 2.02387 1
246.917 190.369 0 1
246.932 190.37 4.03656 1
152.041 192.4 0 1
154.045 192.402 2.02213 1
152.034 194.423 2.02349 1
154.045 194.425 0 1
152.021 192.394 4.03635 1
154.033 194.423 4.03336 1
156.06 192.407 0 1
158.071 192.408 2.0193 1
156.054 194.426 2.02007 1
158.071 194.428 0 1
156.049 192.404 4.03196 1
158.063 194.427 4.02988 1
160.089 192.409 0 1
162.104 192.41 2.01771 1
160.084 194.429 2.01826 1
162.103 194.429 0 1
160.082 192.408 4.02878 1
162.098 194.428 4.02741 1
164.124 192.411 0 1
166.141 192.411 2.01673 1
164.12 194.43 2.01707 1
166.141 194.43 0 1
164.119 192.41 4.02662 1
166.137 194.429 4.02566 1
168.162 192.411 0 1
170.18 192.41 2.01604 1
168.159 194.43 2.01628 1
170.18 194.43 0 1
168.158 192.41 4.0251 1
170.177 194.429 4.02438 1
172.201 192.41 0 1
174.221 192.41 2.01553 1
172.199 194.429 2.01571 1
174.221 194.429 0 1
172.199 192.41 4.02398 1
174.218 194.429 4.02343 1
176.242 192.409 0 1
178.262 192.409 2.01514 1
176.241 194.429 2.01527 1
178.262 194.429 0 1
176.24 192.409 4.02313 1
178.26 194.428 4.02271 1
180.283 192.408 0 1
182.303 192.408 2.01485 1
180.282 194.428 2.01495 1
182.303 194.428 0 1
180.281 192.408 4.02249 1
182.302 194.427 4.02217 1
184.324 192.408 0 1
186.344 192.407 2.01465 1
184.323 194.427 2.01471 1
186.345 194.427 0 1
184.323 192.407 4.02202 1
186.344 194.427 4.02178 1
188.365 192.407 0 1
190.386 192.407 2.01452 1
188.365 194.427 2.01455 1
190.386 194.427 0 1
188.365 192.406 4.0217 1
190.385 194.427 4.02152 1
192.407 192.407 0 1
194.427 192.406 2.01444 1
192.406 194.427 2.01444 1
194.427 194.427 0 1
192.406 192.406 4.02149 1
194.427 194.427 4.02137 1
196.448 192.407 0 1
198.468 192.407 2.01442 1
196.448 194.427 2.01439 1
198.468 194.427 0 1
196.447 192.406 4.02139 1
198.468 194.427 4.02131 1
200.489 192.407 0 1
202.509 192.407 2.01443 1
200.489 194.427 2.01439 1
202.51 194.428 0 1
200.489 192.406 4.02138 1
202.51 194.427 4.02134 1
204.53 192.407 0 1
206.551 192.408 2.01449 1
204.53 194.428 2.01442 1
206.551 194.428 0 1
204.53 192.407 4.02146 1
206.551 194.428 4.02146 1
208.571 192.408 0 1
210.592 192.408 2.0146 1
208.572 194.429 2.01451 1
210.592 194.429 0 1
208.572 192.408 4.02163 1
210.593 194.429 4.02168 1
212.612 192.409 0 1
214.633 192.409 2.01477 1
212.613 194.429 2.01465 1
214.634 194.43 0 1
212.613 192.409 4.0219 1
214.635 194.429 4.02202 1
216.654 192.41 0 1
216.655 194.43 2.01485 1
216.655 192.41 4.0223 1
220.695 192.411 0 1
218.675 192.41 2.01501 1
218.675 194.43 0 1
220.697 194.431 2.01513 1
220.696 192.41 4.02285 1
218.677 194.43 4.02249 1
224.736 192.412 0 1
222.716 192.411 2.01534 1
222.717 194.431 0 1
224.738 194.431 2.01551 1
224.738 192.411 4.02358 1
222.719 194.431 4.02313 1
228.776 192.412 0 1
226.757 192.412 2.01578 1
226.758 194.431 0 1
228.779 194.431 2.01603 1
228.779 192.412 4.02456 1
226.76 194.431 4.02398 1
232.816 192.412 0 1
230.797 192.412 2.01637 1
230.798 194.431 0 1
232.82 194.431 2.0167 1
232.82 192.411 4.02584 1
230.802 194.431 4.02509 1
236.854 192.41 0 1
234.836 192.411 2.01715 1
234.838 194.43 0 1
236.859 194.429 2.01759 1
236.859 192.41 4.02751 1
234.842 194.43 4.02655 1
240.888 192.407 0 1
238.873 192.409 2.01819 1
238.875 194.428 0 1
240.895 194.426 2.01888 1
240.895 192.406 4.0298 1
238.882 194.427 4.02849 1
244.916 192.398 0 1
242.905 192.403 2.01982 1
242.908 194.424 0 1
244.925 194.42 2.02127 1
244.927 192.399 4.03354 1