ITEM: TIMESTEP
0
ITEM: NUMBER OF ATOMS
25304
ITEM: BOX BOUNDS ff ff ff
0.0000000000000000e+00 4.0000000000000000e+02
0.0000000000000000e+00 4.0000000000000000e+02
0.0000000000000000e+00 8.0000000000000000e+02
ITEM: ATOMS x y z type
184.302 148.167 0 1
186.308 148.053 2.01813 1
184.243 148.072 3.99606 1
188.352 148.067 0 1
190.355 148.018 2.02562 1
188.345 147.959 4.01876 1
190.363 149.998 4.03695 1
192.36 146.078 2.02998 1
194.399 146.112 0 1
194.386 146.01 4.01577 1
192.375 148.076 0 1
194.43 148.064 2.03646 1
192.39 148.041 4.03153 1
196.423 146.017 2.00867 1
198.458 146.079 0 1
198.458 145.972 4.0085 1
196.443 148.063 0 1
198.465 148.03 2.03606 1
196.442 147.998 4.03166 1
198.47 149.997 4.03887 1
200.492 146.007 2.0054 1
202.526 146.08 0 1
202.527 145.973 4.00858 1
200.492 148.05 0 1
202.518 148.031 2.03611 1
200.492 147.986 4.03081 1
202.513 149.997 4.03894 1
204.562 146.019 2.00874 1
206.587 146.115 0 1
206.599 146.013 4.01602 1
204.541 148.065 0 1
206.554 148.067 2.03664 1
204.543 148 4.03182 1
208.626 146.083 2.03006 1
208.609 148.08 0 1
210.631 148.023 2.02602 1
208.595 148.045 4.03191 1
212.635 148.075 0 1
214.682 148.065 2.01922 1
212.643 147.967 4.01995 1
216.689 148.186 0 1
216.752 148.093 3.99777 1
170.214 154.098 4.00564 1
174.217 152.121 2.03321 1
172.226 154.114 2.04201 1
174.208 154.139 0 1
174.225 154.113 4.03537 1
178.241 150.195 0 1
178.183 150.105 3.99622 1
176.222 152.152 0 1
178.251 152.119 2.02673 1
176.26 154.118 2.03467 1
178.27 154.109 0 1
176.207 152.068 4.02478 1
178.262 154.082 4.03477 1
180.259 150.057 2.01603 1
182.265 150.1 0 1
182.255 150.013 4.01788 1
180.292 152.127 0 1
182.292 152.066 2.03453 1
180.285 154.082 2.02716 1
180.276 152.067 4.02909 1
184.305 150.09 2.02658 1
186.36 150.093 0 1
186.343 150.033 4.03023 1
184.318 152.066 0 1
186.337 152.05 2.02824 1
184.309 152.043 4.03522 1
188.35 150.048 2.03799 1
190.369 150.053 0 1
192.392 150.043 2.02741 1
194.415 150.035 0 1
194.418 150.013 4.03849 1
196.448 150.029 2.02861 1
198.47 150.03 0 1
200.491 150.017 2.02864 1
202.512 150.03 0 1
204.534 150.03 2.0287 1
206.568 150.037 0 1
206.564 150.015 4.03873 1
208.591 150.046 2.02761 1
210.614 150.058 0 1
210.621 150.002 4.03752 1
212.633 150.054 2.03842 1
214.624 150.104 0 1
214.641 150.043 4.03141 1
214.641 152.061 2.02879 1
216.655 152.083 0 1
216.666 152.06 4.03596 1
216.681 150.107 2.0284 1
218.712 150.134 0 1
220.721 150.1 2.03161 1
218.729 150.049 4.02398 1
220.727 152.114 0 1
218.673 152.096 2.03537 1
220.693 154.095 2.02626 1
220.718 152.085 4.03411 1
224.708 152.173 0 1
222.734 152.078 2.03648 1
222.689 154.131 0 1
224.736 154.12 2.029 1
224.772 152.085 4.00684 1
222.706 154.075 4.0352 1
226.746 154.139 0 1
228.758 154.124 2.0335 1
226.767 154.059 4.02743 1
166.219 158.155 0 1
166.15 158.088 3.99768 1
170.294 154.171 0 1
168.245 156.146 0 1
170.213 156.147 2.03051 1
168.192 158.128 2.02781 1
170.229 158.158 0 1
168.175 156.08 3.99973 1
170.207 158.127 4.03323 1
172.253 156.169 0 1
174.246 156.128 2.02686 1
172.226 158.129 2.028 1
172.231 156.114 4.0368 1
176.251 156.105 0 1
176.248 156.092 4.0374 1
224.714 156.116 0 1
224.724 156.09 4.0363 1
228.765 156.138 0 1
226.72 156.12 2.03476 1
228.735 158.134 2.02668 1
228.754 156.115 4.03588 1
232.689 156.181 0 1
230.752 156.118 2.04069 1
230.724 158.173 0 1
232.767 158.157 2.0303 1
232.766 156.108 4.00553 1
230.748 158.12 4.03671 1
234.737 158.158 0 1
234.805 158.092 4.00002 1
162.182 162.182 0 1
162.114 162.114 3.99659 1
164.199 160.167 0 1
166.176 160.133 2.02683 1
164.16 162.145 2.02656 1
166.195 162.169 0 1
164.131 160.1 3.99681 1
166.167 162.139 4.03089 1
168.211 160.161 0 1
168.184 160.13 4.03159 1
232.749 160.167 0 1
230.755 160.138 2.02777 1
232.777 162.147 2.02417 1
232.773 160.138 4.03357 1
236.762 160.17 0 1
234.788 160.14 2.02791 1
234.767 162.173 0 1
236.803 162.148 2.02725 1
236.83 160.102 3.9985 1
234.794 162.143 4.03236 1
238.78 162.187 0 1
238.847 162.118 3.99867 1
158.155 166.219 0 1
158.088 166.15 3.99768 1
160.167 164.199 0 1
162.145 164.16 2.02656 1
160.133 166.176 2.02683 1
162.169 166.195 0 1
160.1 164.131 3.99681 1
162.139 166.167 4.03089 1
164.181 164.181 0 1
164.152 164.152 4.03071 1
236.78 164.184 0 1
234.794 164.157 2.02372 1
236.807 166.173 2.0241 1
236.808 164.155 4.03244 1
240.793 164.209 0 1
238.812 164.16 2.02796 1
238.789 166.201 0 1
240.798 166.179 2.03089 1
240.859 164.14 4.00092 1
238.816 166.175 4.03399 1
242.773 166.254 0 1
242.845 166.176 4.00831 1
154.098 170.214 4.00564 1
154.171 170.294 0 1
156.146 168.245 0 1
158.128 168.192 2.02781 1
156.147 170.213 2.03051 1
158.158 170.229 0 1
156.08 168.175 3.99973 1
158.127 170.207 4.03323 1
160.161 168.211 0 1
160.13 168.184 4.03159 1
240.789 168.227 0 1
238.819 168.193 2.02778 1
240.828 170.208 2.02677 1
240.839 168.199 4.0384 1
242.838 168.189 2.04347 1
242.847 170.175 0 1
244.855 170.167 2.05993 1
242.86 170.191 4.04244 1
154.114 172.226 2.04201 1
152.121 174.217 2.03321 1
154.139 174.208 0 1
154.113 174.225 4.03537 1
156.169 172.253 0 1
158.129 172.226 2.028 1
156.128 174.246 2.02686 1
156.114 172.231 4.0368 1
244.825 172.19 0 1
242.835 172.22 2.02578 1
242.851 174.224 0 1
244.834 174.238 2.03742 1
244.848 172.187 4.04014 1
242.865 174.217 4.03849 1
246.841 172.236 2.03617 1
246.812 174.222 0 1
246.889 174.204 4.03033 1
150.195 178.241 0 1
150.105 178.183 3.99622 1
152.152 176.222 0 1
154.118 176.26 2.03467 1
152.119 178.251 2.02673 1
154.109 178.27 0 1
152.068 176.207 4.02478 1
154.082 178.262 4.03477 1
156.105 176.251 0 1
156.092 176.248 4.0374 1
244.84 176.251 0 1
244.862 178.257 2.02805 1
244.864 176.239 4.03791 1
248.782 176.253 0 1
246.833 176.226 2.02967 1
246.827 178.275 0 1
248.866 178.221 2.03826 1
248.869 176.188 4.00881 1
246.879 178.256 4.03693 1
150.057 180.259 2.01603 1
150.1 182.265 0 1
150.013 182.255 4.01788 1
152.127 180.292 0 1
154.082 180.285 2.02716 1
152.066 182.292 2.03453 1
152.067 180.276 4.02909 1
248.848 180.241 0 1
246.864 180.269 2.02783 1
246.883 182.28 0 1
248.861 182.282 2.03887 1
248.874 180.25 4.03683 1
246.902 182.281 4.0405 1
250.834 180.212 2.03498 1
250.837 182.265 0 1
250.939 182.246 4.02695 1
148.167 184.302 0 1
148.053 186.308 2.01813 1
148.072 184.243 3.99606 1
150.09 184.305 2.02658 1
150.093 186.36 0 1
150.033 186.343 4.03023 1
152.066 184.318 0 1
152.05 186.337 2.02824 1
152.043 184.309 4.03522 1
248.873 184.292 0 1
248.895 186.309 2.02835 1
248.929 184.284 4.03924 1
250.911 184.258 2.0298 1
250.861 186.283 0 1
252.856 186.26 2.03082 1
250.895 186.297 4.0337 1
148.067 188.352 0 1
148.018 190.355 2.02562 1
147.959 188.345 4.01876 1
149.998 190.363 4.03695 1
150.048 188.35 2.03799 1
150.053 190.369 0 1
248.91 188.331 0 1
248.921 190.365 2.02896 1
248.931 188.335 4.03953 1
252.83 188.3 0 1
250.879 188.339 2.03714 1
250.886 190.352 0 1
252.931 190.324 2.009 1
252.932 188.286 4.01711 1
250.951 190.349 4.03239 1
146.078 192.36 2.02998 1
146.112 194.399 0 1
146.01 194.386 4.01577 1
148.076 192.375 0 1
148.064 194.43 2.03646 1
148.041 192.39 4.03153 1
150.043 192.392 2.02741 1
150.035 194.415 0 1
150.013 194.418 4.03849 1
252.875 192.361 0 1
250.924 192.374 2.03627 1
250.91 194.4 0 1
252.953 194.392 2.00509 1
252.983 192.358 4.00875 1
250.975 194.4 4.03054 1
146.017 196.423 2.00867 1
146.079 198.458 0 1
145.972 198.458 4.0085 1
148.063 196.443 0 1
148.03 198.465 2.03606 1
147.998 196.442 4.03166 1
149.997 198.47 4.03887 1
150.029 196.448 2.02861 1
150.03 198.47 0 1
252.887 196.425 0 1
250.936 196.428 2.03559 1
250.916 198.457 0 1
252.96 198.455 2.00458 1
252.995 196.423 4.0063 1
250.981 198.456 4.02986 1
146.007 200.492 2.0054 1
146.08 202.526 0 1
145.973 202.527 4.00858 1
148.05 200.492 0 1
148.031 202.518 2.03611 1
147.986 200.492 4.03081 1
149.997 202.513 4.03894 1
150.017 200.491 2.02864 1
150.03 202.512 0 1
252.889 200.485 0 1
250.939 200.484 2.03552 1
250.914 202.512 0 1
252.958 202.516 2.0047 1
252.998 200.485 4.00598 1
250.98 202.513 4.02999 1
146.019 204.562 2.00874 1
146.115 206.587 0 1
146.013 206.599 4.01602 1
148.065 204.541 0 1
148.067 206.554 2.03664 1
148 204.543 4.03182 1
150.03 204.534 2.0287 1
150.037 206.568 0 1
150.015 206.564 4.03873 1
252.884 204.546 0 1
250.933 204.54 2.03561 1
250.904 206.567 0 1
252.948 206.579 2.00581 1
252.992 204.548 4.00678 1
250.969 206.567 4.03105 1
146.083 208.626 2.03006 1
148.08 208.609 0 1
148.023 210.631 2.02602 1
148.045 208.595 4.03191 1
150.046 208.591 2.02761 1
150.058 210.614 0 1
150.002 210.621 4.03752 1
248.912 210.603 2.02914 1
252.868 208.611 0 1
250.911 208.586 2.03619 1
250.857 210.592 0 1
252.903 210.639 2.01703 1
252.972 208.614 4.01197 1
250.921 210.603 4.02906 1
148.075 212.635 0 1
148.065 214.682 2.01922 1
147.967 212.643 4.01995 1
150.054 212.633 2.03842 1
150.104 214.624 0 1
150.043 214.641 4.03141 1
152.061 214.641 2.02879 1
152.083 216.655 0 1
152.06 216.666 4.03596 1
248.894 212.628 0 1
248.901 214.65 2.03488 1
248.921 212.632 4.0357 1
248.845 216.648 0 1
248.907 216.664 4.02919 1
252.799 212.637 0 1
250.872 212.639 2.0264 1
250.867 214.673 0 1
252.894 212.698 3.99531 1
250.954 214.683 4.01756 1
148.186 216.689 0 1
148.093 216.752 3.99777 1
150.107 216.681 2.0284 1
150.134 218.712 0 1
150.1 220.721 2.03161 1
150.049 218.729 4.02398 1
152.114 220.727 0 1
152.096 218.673 2.03537 1
154.095 220.693 2.02626 1
152.085 220.718 4.03411 1
246.873 218.679 0 1
248.846 220.722 0 1
248.862 218.686 2.02545 1
246.877 220.696 2.03558 1
246.901 218.686 4.03569 1
248.932 220.73 4.01937 1
250.919 216.674 2.01537 1
250.789 218.689 0 1
250.881 218.745 3.99534 1
152.173 224.708 0 1
152.078 222.734 2.03648 1
154.131 222.689 0 1
154.12 224.736 2.029 1
152.085 224.772 4.00684 1
154.075 222.706 4.0352 1
156.116 224.714 0 1
156.09 224.724 4.0363 1
244.832 224.714 0 1
244.863 222.707 2.02777 1
244.861 224.726 4.03358 1
246.812 222.693 0 1
248.76 224.713 0 1
248.884 222.716 2.01698 1
246.827 224.742 2.03003 1
246.873 222.714 4.03117 1
248.845 224.771 3.99517 1
154.139 226.746 0 1
154.124 228.758 2.0335 1
154.059 226.767 4.02743 1
156.138 228.765 0 1
156.12 226.72 2.03476 1
158.134 228.735 2.02668 1
156.115 228.754 4.03588 1
240.838 228.756 0 1
240.851 228.763 4.04041 1
242.83 226.729 0 1
244.798 228.757 0 1
244.848 226.753 2.02754 1
242.824 228.736 2.03764 1
242.856 226.741 4.03738 1
244.877 228.77 4.03179 1
246.8 226.757 0 1
246.881 226.813 4.00374 1
156.181 232.689 0 1
156.118 230.752 2.04069 1
158.173 230.724 0 1
158.157 232.767 2.0303 1
156.108 232.766 4.00553 1
158.12 230.748 4.03671 1
160.167 232.749 0 1
160.138 230.755 2.02777 1
162.147 232.777 2.02417 1
160.138 232.773 4.03357 1
240.835 232.802 0 1
240.819 230.761 2.02929 1
238.816 232.781 2.02909 1
240.845 232.796 4.05138 1
242.812 230.782 0 1
244.838 230.731 2.03868 1
242.848 232.773 2.06624 1
242.834 230.778 4.04453 1
158.158 234.737 0 1
158.092 234.805 4.00002 1
160.17 236.762 0 1
160.14 234.788 2.02791 1
162.173 234.767 0 1
162.148 236.803 2.02725 1
160.102 236.83 3.9985 1
162.143 234.794 4.03236 1
164.184 236.78 0 1
164.157 234.794 2.02372 1
166.173 236.807 2.0241 1
164.155 236.808 4.03244 1
236.824 236.824 0 1
236.808 234.796 2.02908 1
234.796 236.808 2.02908 1
236.825 236.825 4.05366 1
238.833 234.813 0 1
240.838 234.796 2.06994 1
238.826 236.812 2.07042 1
238.837 234.811 4.05325 1
162.187 238.78 0 1
162.118 238.847 3.99867 1
164.209 240.793 0 1
164.16 238.812 2.02796 1
166.201 238.789 0 1
166.179 240.798 2.03089 1
164.14 240.859 4.00092 1
166.175 238.816 4.03399 1
168.227 240.789 0 1
168.193 238.819 2.02778 1
170.208 240.828 2.02677 1
168.199 240.839 4.0384 1
228.756 240.838 0 1
228.763 240.851 4.04041 1
232.802 240.835 0 1
232.781 238.816 2.02909 1
230.761 240.819 2.02929 1
232.796 240.845 4.05138 1
234.813 238.833 0 1
236.812 238.826 2.07042 1
234.796 240.838 2.06994 1
234.811 238.837 4.05325 1
166.254 242.773 0 1
166.176 242.845 4.00831 1
168.189 242.838 2.04347 1
170.175 242.847 0 1
170.167 244.855 2.05993 1
170.191 242.86 4.04244 1
172.19 244.825 0 1
172.22 242.835 2.02578 1
174.224 242.851 0 1
174.238 244.834 2.03742 1
172.187 244.848 4.04014 1
174.217 242.865 4.03849 1
176.251 244.84 0 1
178.257 244.862 2.02805 1
176.239 244.864 4.03791 1
224.714 244.832 0 1
222.707 244.863 2.02777 1
224.726 244.861 4.03358 1
226.729 242.83 0 1
228.757 244.798 0 1
228.736 242.824 2.03764 1
226.753 244.848 2.02754 1
226.741 242.856 4.03738 1
228.77 244.877 4.03179 1
230.782 242.812 0 1
232.773 242.848 2.06624 1
230.731 244.838 2.03868 1
230.778 242.834 4.04453 1
172.236 246.841 2.03617 1
174.222 246.812 0 1
174.204 246.889 4.03033 1
176.253 248.782 0 1
176.226 246.833 2.02967 1
178.275 246.827 0 1
178.221 248.866 2.03826 1
176.188 248.869 4.00881 1
178.256 246.879 4.03693 1
180.241 248.848 0 1
180.269 246.864 2.02783 1
182.28 246.883 0 1
182.282 248.861 2.03887 1
180.25 248.874 4.03683 1
182.281 246.902 4.0405 1
184.292 248.873 0 1
186.309 248.895 2.02835 1
184.284 248.929 4.03924 1
188.331 248.91 0 1
190.365 248.921 2.02896 1
188.335 248.931 4.03953 1
210.603 248.912 2.02914 1
212.628 248.894 0 1
214.65 248.901 2.03488 1
212.632 248.921 4.0357 1
216.648 248.845 0 1
216.664 248.907 4.02919 1
218.679 246.873 0 1
220.722 248.846 0 1
220.696 246.877 2.03558 1
218.686 248.862 2.02545 1
218.686 246.901 4.03569 1
220.73 248.932 4.01937 1
222.693 246.812 0 1
224.713 248.76 0 1
224.742 246.827 2.03003 1
222.716 248.884 2.01698 1
222.714 246.873 4.03117 1
224.771 248.845 3.99517 1
226.757 246.8 0 1
226.813 246.881 4.00374 1
180.212 250.834 2.03498 1
182.265 250.837 0 1
182.246 250.939 4.02695 1
184.258 250.911 2.0298 1
186.283 250.861 0 1
186.26 252.856 2.03082 1
186.297 250.895 4.0337 1
188.3 252.83 0 1
188.339 250.879 2.03714 1
190.352 250.886 0 1
190.324 252.931 2.009 1
188.286 252.932 4.01711 1
190.349 250.951 4.03239 1
192.361 252.875 0 1
192.374 250.924 2.03627 1
194.4 250.91 0 1
194.392 252.953 2.00509 1
192.358 252.983 4.00875 1
194.4 250.975 4.03054 1
196.425 252.887 0 1
196.428 250.936 2.03559 1
198.457 250.916 0 1
198.455 252.96 2.00458 1
196.423 252.995 4.0063 1
198.456 250.981 4.02986 1
200.485 252.889 0 1
200.484 250.939 2.03552 1
202.512 250.914 0 1
202.516 252.958 2.0047 1
200.485 252.998 4.00598 1
202.513 250.98 4.02999 1
204.546 252.884 0 1
204.54 250.933 2.03561 1
206.567 250.904 0 1
206.579 252.948 2.00581 1
204.548 252.992 4.00678 1
206.567 250.969 4.03105 1
208.611 252.868 0 1
208.586 250.911 2.03619 1
210.592 250.857 0 1
210.639 252.903 2.01703 1
208.614 252.972 4.01197 1
210.603 250.921 4.02906 1
212.637 252.799 0 1
212.639 250.872 2.0264 1
214.673 250.867 0 1
212.698 252.894 3.99531 1
214.683 250.954 4.01756 1
216.674 250.919 2.01537 1
218.689 250.789 0 1
218.745 250.881 3.99534 1
182.235 149.968 8.0518 1
186.275 147.995 6.02403 1
184.232 148.032 8.04133 1
186.331 149.984 8.06192 1
190.347 147.959 6.03725 1
188.335 149.979 6.04912 1
188.329 147.914 8.04995 1
190.352 149.948 8.06976 1
192.34 146.027 6.02002 1
194.37 145.965 8.04502 1
194.427 148 6.04646 1
192.388 149.998 6.0561 1
192.379 147.988 8.05931 1
194.413 149.965 8.07438 1
196.419 145.955 6.02977 1
198.456 145.926 8.05003 1
198.464 147.96 6.04668 1
196.448 149.981 6.05759 1
196.436 147.948 8.06444 1
198.468 149.948 8.07581 1
200.493 145.945 6.02803 1
202.53 145.927 8.05017 1
202.52 147.96 6.04678 1
200.491 149.967 6.05764 1
200.492 147.936 8.0652 1
202.515 149.949 8.07592 1
204.567 145.957 6.03001 1
206.616 145.968 8.04541 1
206.557 148.003 6.04678 1
204.535 149.983 6.05778 1
204.548 147.95 8.06468 1
206.57 149.968 8.07473 1
208.646 146.031 6.02035 1
210.64 147.964 6.03825 1
208.606 147.992 8.05987 1
210.632 149.953 8.07054 1
214.717 148.008 6.02586 1
212.649 149.986 6.05011 1
212.66 147.922 8.05128 1
214.655 149.996 8.06303 1
216.767 148.056 8.04217 1
170.197 154.066 8.04 1
174.18 152.081 6.02249 1
172.187 154.061 6.03042 1
174.195 154.066 8.05801 1
178.166 150.069 8.04109 1
178.235 152.059 6.03935 1
176.249 154.064 6.05089 1
176.178 152.026 8.05038 1
178.244 154.038 8.0699 1
180.225 150 6.02462 1
182.275 152.002 6.04891 1
180.271 154.036 6.05492 1
180.26 152.021 8.06219 1
184.289 150.028 6.03855 1
186.324 152.002 6.0557 1
184.294 151.996 8.07007 1
208.596 150.001 6.05656 1
214.654 152.013 6.05647 1
216.698 150.047 6.04026 1
220.754 150.057 6.02281 1
218.755 150.007 8.05107 1
218.685 152.041 6.05116 1
220.709 154.053 6.0557 1
216.681 152.015 8.07102 1
220.742 152.035 8.06008 1
222.766 152.02 6.03217 1
224.753 154.065 6.04494 1
224.785 152.048 8.04621 1
222.723 154.029 8.06764 1
228.798 154.085 6.0249 1
226.797 154.017 8.05389 1
166.125 158.057 8.04253 1
170.166 156.097 6.03519 1
168.142 158.077 6.03404 1
168.152 156.048 8.04244 1
170.177 158.088 8.06404 1
174.227 156.087 6.05516 1
172.198 158.088 6.05514 1
172.205 156.071 8.0626 1
176.229 156.051 8.07477 1
224.743 156.047 8.07339 1
226.735 156.068 6.05321 1
228.756 158.094 6.05617 1
228.785 156.069 8.06041 1
230.793 156.068 6.03177 1
232.815 158.106 6.03602 1
232.784 156.077 8.04176 1
230.776 158.079 8.06424 1
234.83 158.061 8.04404 1
162.087 162.087 8.0419 1
166.125 160.082 6.03299 1
164.109 162.094 6.03248 1
164.104 160.071 8.04209 1
166.134 162.104 8.06324 1
168.152 160.093 8.06366 1
230.784 160.097 6.05591 1
232.809 162.111 6.05496 1
232.804 160.1 8.06552 1
234.838 160.089 6.03518 1
236.852 162.096 6.0349 1
236.856 160.073 8.04456 1
234.827 162.107 8.06549 1
238.875 162.09 8.04492 1
158.057 166.125 8.04253 1
162.094 164.109 6.03248 1
160.082 166.125 6.03299 1
160.071 164.104 8.04209 1
162.104 166.134 8.06324 1
164.117 164.117 8.06309 1
234.828 164.123 6.05472 1
236.842 166.139 6.05529 1
236.843 164.121 8.0658 1
238.861 164.109 6.03579 1
240.846 166.13 6.03771 1
240.889 164.115 8.04521 1
238.853 166.143 8.06658 1
242.876 166.156 8.04387 1
154.066 170.197 8.04 1
158.077 168.142 6.03404 1
156.097 170.166 6.03519 1
156.048 168.152 8.04244 1
158.088 170.177 8.06404 1
160.093 168.152 8.06366 1
238.857 168.161 6.05688 1
240.862 170.184 6.05877 1
240.879 168.171 8.0664 1
242.889 168.148 6.03482 1
244.899 170.13 6.02856 1
242.91 170.155 8.06404 1
154.061 172.187 6.03042 1
152.081 174.18 6.02249 1
154.066 174.195 8.05801 1
158.088 172.198 6.05514 1
156.087 174.227 6.05516 1
156.071 172.205 8.0626 1
242.868 172.206 6.05908 1
244.884 174.221 6.05547 1
244.894 172.15 8.06086 1
242.904 174.196 8.0785 1
246.88 172.195 6.02669 1
246.928 174.172 8.05563 1
150.069 178.166 8.04109 1
154.064 176.249 6.05089 1
152.059 178.235 6.03935 1
152.026 176.178 8.05038 1
154.038 178.244 8.0699 1
156.051 176.229 8.07477 1
244.9 178.241 6.05938 1
244.905 176.219 8.07516 1
246.886 176.207 6.04698 1
248.922 178.188 6.03484 1
248.904 176.172 8.04826 1
246.924 178.239 8.06961 1
149.968 182.235 8.0518 1
150 180.225 6.02462 1
154.036 180.271 6.05492 1
152.002 182.275 6.04891 1
152.021 180.26 8.06219 1
246.907 180.254 6.05787 1
248.919 182.27 6.05313 1
248.924 180.225 8.0619 1
246.947 182.266 8.07804 1
250.877 180.175 6.02508 1
250.981 182.22 8.05202 1
147.995 186.275 6.02403 1
148.032 184.232 8.04133 1
149.984 186.331 8.06192 1
150.028 184.289 6.03855 1
152.002 186.324 6.0557 1
151.996 184.294 8.07007 1
248.939 186.303 6.05795 1
248.977 184.271 8.07246 1
250.969 184.247 6.04204 1
252.906 186.238 6.02158 1
250.947 186.283 8.06153 1
149.979 188.335 6.04912 1
147.959 190.347 6.03725 1
147.914 188.329 8.04995 1
149.948 190.352 8.06976 1
248.968 190.363 6.05851 1
248.978 188.327 8.07593 1
250.943 188.334 6.04801 1
252.993 190.318 6.03098 1
252.976 188.267 8.04691 1
251.001 190.342 8.06573 1
146.027 192.34 6.02002 1
145.965 194.37 8.04502 1
149.998 192.388 6.0561 1
148 194.427 6.04646 1
147.988 192.379 8.05931 1
149.965 194.413 8.07438 1
250.995 192.371 6.04714 1
253.015 194.391 6.0274 1
253.028 192.354 8.05079 1
251.024 194.397 8.06543 1
145.955 196.419 6.02977 1
145.926 198.456 8.05003 1
149.981 196.448 6.05759 1
147.96 198.464 6.04668 1
147.948 196.436 8.06444 1
149.948 198.468 8.07581 1
251.008 196.427 6.04582 1
253.023 198.454 6.02607 1
253.041 196.422 8.0492 1
251.031 198.456 8.06474 1
145.945 200.493 6.02803 1
145.927 202.53 8.05017 1
149.967 200.491 6.05764 1
147.96 202.52 6.04678 1
147.936 200.492 8.0652 1
149.949 202.515 8.07592 1
251.01 200.485 6.0455 1
253.021 202.517 6.02625 1
253.044 200.486 8.04866 1
251.03 202.515 8.06472 1
145.957 204.567 6.03001 1
145.968 206.616 8.04541 1
149.983 204.535 6.05778 1
148.003 206.557 6.04678 1
147.95 204.548 8.06468 1
149.968 206.57 8.07473 1
251.005 204.542 6.04604 1
253.01 206.582 6.02832 1
253.038 204.551 8.04923 1
251.02 206.574 8.06421 1
146.031 208.646 6.02035 1
147.964 210.64 6.03825 1
147.992 208.606 8.05987 1
149.953 210.632 8.07054 1
150.001 208.596 6.05656 1
248.963 210.611 6.05528 1
250.983 208.596 6.04542 1
252.963 210.668 6.02057 1
253.019 208.629 8.04548 1
250.971 210.613 8.05991 1
149.986 212.649 6.05011 1
148.008 214.717 6.02586 1
147.922 212.66 8.05128 1
149.996 214.655 8.06303 1
152.013 214.654 6.05647 1
248.966 214.664 6.04928 1
248.969 212.644 8.07005 1
250.935 212.652 6.03776 1
252.934 212.705 8.03968 1
251.001 214.7 8.05127 1
148.056 216.767 8.04217 1
150.047 216.698 6.04026 1
150.057 220.754 6.02281 1
150.007 218.755 8.05107 1
152.041 218.685 6.05116 1
154.053 220.709 6.0557 1
152.015 216.681 8.07102 1
152.035 220.742 8.06008 1
248.925 218.701 6.03912 1
246.941 220.714 6.05015 1
248.955 216.677 8.06282 1
246.947 218.702 8.0711 1
248.977 220.752 8.05272 1
250.977 216.705 6.02407 1
250.92 218.757 8.04227 1
152.02 222.766 6.03217 1
154.065 224.753 6.04494 1
152.048 224.785 8.04621 1
154.029 222.723 8.06764 1
156.047 224.743 8.07339 1
244.913 222.727 6.05529 1
244.905 224.744 8.06944 1
248.936 222.754 6.02498 1
246.888 224.778 6.03509 1
246.918 222.734 8.06202 1
248.88 224.788 8.04116 1
154.085 228.798 6.0249 1
154.017 226.797 8.05389 1
156.068 226.735 6.05321 1
158.094 228.756 6.05617 1
156.069 228.785 8.06041 1
240.889 228.784 8.08089 1
244.903 226.768 6.04658 1
242.874 228.75 6.05738 1
242.896 226.761 8.07593 1
244.914 228.802 8.05841 1
246.916 226.831 8.04946 1
156.068 230.793 6.03177 1
158.106 232.815 6.03602 1
156.077 232.784 8.04176 1
158.079 230.776 8.06424 1
160.097 230.784 6.05591 1
162.111 232.809 6.05496 1
160.1 232.804 8.06552 1
240.85 230.775 6.06355 1
238.841 232.798 6.06632 1
240.893 232.838 8.06765 1
244.878 230.769 6.03016 1
242.892 232.809 6.03386 1
242.878 230.817 8.06424 1
158.061 234.83 8.04404 1
160.089 234.838 6.03518 1
162.096 236.852 6.0349 1
160.073 236.856 8.04456 1
162.107 234.827 8.06549 1
164.123 234.828 6.05472 1
166.139 236.842 6.05529 1
164.121 236.843 8.0658 1
236.829 234.815 6.06718 1
234.815 236.829 6.06718 1
236.871 236.871 8.07021 1
240.881 234.833 6.03706 1
238.867 236.851 6.03859 1
238.885 234.855 8.0696 1
162.09 238.875 8.04492 1
164.109 238.861 6.03579 1
166.13 240.846 6.03771 1
164.115 240.889 8.04521 1
166.143 238.853 8.06658 1
168.161 238.857 6.05688 1
170.184 240.862 6.05877 1
168.171 240.879 8.0664 1
228.784 240.889 8.08089 1
232.798 238.841 6.06632 1
230.775 240.85 6.06355 1
232.838 240.893 8.06765 1
236.851 238.867 6.03859 1
234.833 240.881 6.03706 1
234.855 238.885 8.0696 1
166.156 242.876 8.04387 1
168.148 242.889 6.03482 1
170.13 244.899 6.02856 1
170.155 242.91 8.06404 1
172.206 242.868 6.05908 1
174.221 244.884 6.05547 1
172.15 244.894 8.06086 1
174.196 242.904 8.0785 1
178.241 244.9 6.05938 1
176.219 244.905 8.07516 1
222.727 244.913 6.05529 1
224.744 244.905 8.06944 1
228.75 242.874 6.05738 1
226.768 244.903 6.04658 1
226.761 242.896 8.07593 1
228.802 244.914 8.05841 1
232.809 242.892 6.03386 1
230.769 244.878 6.03016 1
230.817 242.878 8.06424 1
172.195 246.88 6.02669 1
174.172 246.928 8.05563 1
176.207 246.886 6.04698 1
178.188 248.922 6.03484 1
176.172 248.904 8.04826 1
178.239 246.924 8.06961 1
180.254 246.907 6.05787 1
182.27 248.919 6.05313 1
180.225 248.924 8.0619 1
182.266 246.947 8.07804 1
186.303 248.939 6.05795 1
184.271 248.977 8.07246 1
190.363 248.968 6.05851 1
188.327 248.978 8.07593 1
210.611 248.963 6.05528 1
214.664 248.966 6.04928 1
212.644 248.969 8.07005 1
220.714 246.941 6.05015 1
218.701 248.925 6.03912 1
216.677 248.955 8.06282 1
218.702 246.947 8.0711 1
220.752 248.977 8.05272 1
224.778 246.888 6.03509 1
222.754 248.936 6.02498 1
222.734 246.918 8.06202 1
224.788 248.88 8.04116 1
226.831 246.916 8.04946 1
180.175 250.877 6.02508 1
182.22 250.981 8.05202 1
184.247 250.969 6.04204 1
186.238 252.906 6.02158 1
186.283 250.947 8.06153 1
188.334 250.943 6.04801 1
190.318 252.993 6.03098 1
188.267 252.976 8.04691 1
190.342 251.001 8.06573 1
192.371 250.995 6.04714 1
194.391 253.015 6.0274 1
192.354 253.028 8.05079 1
194.397 251.024 8.06543 1
196.427 251.008 6.04582 1
198.454 253.023 6.02607 1
196.422 253.041 8.0492 1
198.456 251.031 8.06474 1
200.485 251.01 6.0455 1
202.517 253.021 6.02625 1
200.486 253.044 8.04866 1
202.515 251.03 8.06472 1
204.542 251.005 6.04604 1
206.582 253.01 6.02832 1
204.551 253.038 8.04923 1
206.574 251.02 8.06421 1
208.596 250.983 6.04542 1
210.668 252.963 6.02057 1
208.629 253.019 8.04548 1
210.613 250.971 8.05991 1
212.652 250.935 6.03776 1
212.705 252.934 8.03968 1
214.7 251.001 8.05127 1
216.705 250.977 6.02407 1
218.757 250.92 8.04227 1
180.211 149.968 10.0686 1
182.225 149.941 12.0943 1
186.265 147.96 10.068 1
184.276 149.993 10.0772 1
184.222 148.005 12.0869 1
186.323 149.955 12.101 1
190.337 147.92 10.0746 1
188.326 149.94 10.0843 1
188.322 147.885 12.0929 1
190.346 149.917 12.1062 1
192.334 145.99 10.0646 1
194.366 145.936 12.089 1
194.421 147.96 10.0807 1
192.381 149.958 10.0899 1
192.374 147.958 12.0983 1
194.409 149.933 12.1102 1
196.411 145.918 10.0688 1
198.452 145.896 12.0918 1
198.461 147.92 10.0837 1
196.444 149.942 10.0931 1
196.433 147.917 12.1018 1
198.467 149.916 12.1123 1
200.493 145.908 10.0716 1
202.534 145.897 12.0919 1
202.523 147.921 10.0838 1
200.491 149.927 10.0941 1
200.492 147.904 12.1034 1
202.516 149.917 12.1124 1
204.575 145.92 10.0691 1
206.621 145.939 12.0894 1
206.565 147.963 10.0811 1
204.539 149.944 10.0934 1
204.552 147.918 12.1021 1
206.575 149.936 12.1105 1
208.653 145.995 10.065 1
210.65 147.925 10.0755 1
208.603 149.961 10.0905 1
208.613 147.962 12.0988 1
210.639 149.921 12.1069 1
214.729 147.974 10.0688 1
212.659 149.948 10.0851 1
212.669 147.893 12.0935 1
214.664 149.967 12.1014 1
216.777 148.03 12.0872 1
218.766 149.98 12.0938 1
170.182 154.043 12.0844 1
174.163 152.051 10.0643 1
172.168 154.031 10.0694 1
174.179 154.04 12.0963 1
178.153 150.045 12.086 1
178.216 152.026 10.0762 1
176.229 154.029 10.0825 1
176.164 152.001 12.0917 1
178.23 154.011 12.1059 1
182.262 151.966 10.0849 1
180.256 154.001 10.091 1
180.248 151.994 12.1008 1
186.314 151.965 10.0914 1
184.285 151.967 12.1074 1
214.666 151.976 10.092 1
216.714 150.013 10.0774 1
220.768 150.024 10.067 1
218.701 152.005 10.0845 1
220.724 154.016 10.0903 1
216.692 151.986 12.1076 1
220.754 152.008 12.1 1
222.781 151.987 10.0742 1
224.773 154.031 10.0805 1
224.799 152.024 12.0906 1
222.736 154.003 12.1053 1
228.817 154.056 10.0676 1
226.812 153.992 12.0954 1
166.108 158.036 12.0874 1
170.146 156.066 10.0727 1
168.122 158.049 10.074 1
168.136 156.025 12.0864 1
170.161 158.064 12.1016 1
174.207 156.052 10.0868 1
172.177 158.056 10.089 1
172.19 156.046 12.0997 1
176.214 156.023 12.1098 1
224.758 156.02 12.1095 1
226.755 156.033 10.0857 1
228.777 158.06 10.0891 1
228.801 156.044 12.0994 1
230.813 156.038 10.072 1
232.835 158.077 10.0749 1
232.801 156.055 12.0871 1
230.792 158.055 12.1023 1
234.846 158.04 12.0889 1
162.067 162.067 12.0879 1
166.103 160.056 10.0743 1
164.085 162.069 10.0743 1
164.086 160.051 12.0879 1
166.115 162.083 12.1028 1
168.135 160.071 12.1025 1
230.806 160.066 10.0909 1
232.832 162.082 10.0916 1
232.821 160.077 12.104 1
234.859 160.062 10.0762 1
236.876 162.072 10.0767 1
236.874 160.053 12.0899 1
234.846 162.086 12.1049 1
238.894 162.072 12.0903 1
158.036 166.108 12.0874 1
162.069 164.085 10.0743 1
160.056 166.103 10.0743 1
160.051 164.086 12.0879 1
162.083 166.115 12.1028 1
164.098 164.098 12.1029 1
234.853 164.097 10.092 1
236.869 166.115 10.0923 1
236.863 164.102 12.1053 1
238.887 164.087 10.0769 1
240.875 166.109 10.0765 1
240.909 164.097 12.0901 1
238.875 166.125 12.1052 1
242.897 166.139 12.0892 1
154.043 170.182 12.0844 1
158.049 168.122 10.074 1
156.066 170.146 10.0727 1
156.025 168.136 12.0864 1
158.064 170.161 12.1016 1
160.071 168.135 12.1025 1
238.887 168.138 10.0924 1
240.895 170.162 10.0917 1
240.903 168.154 12.1044 1
242.918 168.126 10.0747 1
244.929 170.11 10.0719 1
242.935 170.138 12.1026 1
154.031 172.168 10.0694 1
152.051 174.163 10.0643 1
154.04 174.179 12.0963 1
158.056 172.177 10.089 1
156.052 174.207 10.0868 1
156.046 172.19 12.0997 1
242.902 172.183 10.09 1
244.918 174.199 10.0869 1
244.919 172.134 12.1 1
242.931 174.18 12.1136 1
246.909 172.176 10.0686 1
246.953 174.157 12.0964 1
150.045 178.153 12.086 1
154.029 176.229 10.0825 1
152.026 178.216 10.0762 1
152.001 176.164 12.0917 1
154.011 178.23 12.1059 1
156.023 176.214 12.1098 1
244.935 178.225 10.0963 1
244.933 176.204 12.1108 1
246.919 176.187 10.0821 1
248.955 178.172 10.0759 1
248.929 176.158 12.0918 1
246.951 178.226 12.1066 1
149.968 180.211 10.0686 1
149.941 182.225 12.0943 1
154.001 180.256 10.091 1
151.966 182.262 10.0849 1
151.994 180.248 12.1008 1
246.944 180.24 10.0919 1
248.957 182.256 10.0856 1
248.952 180.214 12.101 1
246.977 182.256 12.1136 1
250.91 180.162 10.0681 1
251.008 182.21 12.0939 1
149.993 184.276 10.0772 1
147.96 186.265 10.068 1
148.005 184.222 12.0869 1
149.955 186.323 12.101 1
151.965 186.314 10.0914 1
151.967 184.285 12.1074 1
248.978 186.293 10.0918 1
249.007 184.261 12.1077 1
251.007 184.232 10.0765 1
252.941 186.228 10.0659 1
250.976 186.273 12.0999 1
149.94 188.326 10.0843 1
147.92 190.337 10.0746 1
149.917 190.346 12.1062 1
147.885 188.322 12.0929 1
249.007 190.357 10.0946 1
249.009 188.32 12.1119 1
250.981 188.324 10.0825 1
253.03 190.307 10.0705 1
251.031 190.335 12.1037 1
253.004 188.259 12.0908 1
145.99 192.334 10.0646 1
145.936 194.366 12.089 1
149.958 192.381 10.0899 1
147.96 194.421 10.0807 1
149.933 194.409 12.1102 1
147.958 192.374 12.0983 1
251.033 192.365 10.0849 1
253.052 194.387 10.0724 1
251.055 194.393 12.1053 1