ITEM: TIMESTEP
0
ITEM: NUMBER OF ATOMS
116135
ITEM: BOX BOUNDS ff ff ff
0.0000000000000000e+00 4.0000000000000000e+02
0.0000000000000000e+00 4.0000000000000000e+02
0.0000000000000000e+00 8.0000000000000000e+02
ITEM: ATOMS x y z type
194.652 150.542 1.56303 1
197.81 150.55 1.55907 1
200.963 150.549 1.55902 1
204.121 150.54 1.56285 1
182.048 153.695 1.56429 1
185.198 153.691 1.55558 1
186.767 152.116 0 1
186.786 152.13 3.15472 1
188.35 153.685 1.55192 1
189.925 152.116 0 1
189.937 152.116 3.14319 1
191.503 153.678 1.54995 1
193.077 152.104 0 1
193.077 152.106 3.13807 1
194.653 153.675 1.54956 1
196.23 152.107 0 1
196.229 152.11 3.13643 1
197.808 153.676 1.54921 1
199.387 152.11 0 1
199.387 152.113 3.1357 1
200.965 153.676 1.54917 1
202.544 152.107 0 1
202.544 152.109 3.13628 1
204.12 153.673 1.54946 1
205.697 152.102 0 1
205.696 152.104 3.13769 1
207.271 153.675 1.54975 1
208.849 152.113 0 1
208.838 152.113 3.1423 1
210.424 153.681 1.55158 1
212.008 152.112 0 1
211.991 152.124 3.15278 1
213.576 153.685 1.55487 1
216.725 153.691 1.56201 1
175.747 156.845 1.5662 1
178.893 156.831 1.55312 1
180.46 155.251 0 1
180.472 155.262 3.14575 1
182.04 156.825 1.54911 1
183.618 155.256 0 1
183.622 155.258 3.13573 1
185.194 156.824 1.54816 1
186.772 155.253 0 1
186.774 155.253 3.13119 1
188.348 156.821 1.54729 1
189.926 155.25 0 1
189.927 155.247 3.12847 1
191.502 156.818 1.54663 1
193.078 155.246 0 1
193.078 155.243 3.12715 1
194.655 156.816 1.54621 1
196.231 155.245 0 1
196.231 155.243 3.12645 1
197.809 156.815 1.54602 1
199.387 155.245 0 1
199.387 155.243 3.1262 1
200.965 156.815 1.54598 1
202.542 155.244 0 1
202.543 155.242 3.12634 1
204.119 156.815 1.54612 1
205.695 155.244 0 1
205.696 155.242 3.1269 1
207.272 156.816 1.54648 1
208.848 155.248 0 1
208.848 155.244 3.12803 1
210.425 156.819 1.54711 1
212.001 155.25 0 1
212 155.249 3.13049 1
213.578 156.822 1.54795 1
215.154 155.253 0 1
215.151 155.255 3.13444 1
216.729 156.826 1.54865 1
218.305 155.258 0 1
218.295 155.266 3.1421 1
219.88 156.833 1.55054 1
221.458 155.265 0 1
221.437 155.289 3.15864 1
223.033 156.837 1.56034 1
172.585 159.976 1.55747 1
174.152 158.397 0 1
174.17 158.416 3.15093 1
175.734 159.973 1.54857 1
177.312 158.403 0 1
177.317 158.405 3.13523 1
178.887 159.971 1.54733 1
180.464 158.397 0 1
180.465 158.397 3.12875 1
182.039 159.968 1.54609 1
183.616 158.395 0 1
183.616 158.393 3.12586 1
185.192 159.966 1.54545 1
186.77 158.394 0 1
186.77 158.391 3.12453 1
188.346 159.964 1.54491 1
189.924 158.392 0 1
189.924 158.389 3.12348 1
191.5 159.962 1.54446 1
193.078 158.389 0 1
193.078 158.387 3.12278 1
194.655 159.961 1.54415 1
196.232 158.388 0 1
196.232 158.385 3.12232 1
197.809 159.96 1.54399 1
199.387 158.387 0 1
199.387 158.385 3.12213 1
200.964 159.959 1.54397 1
202.542 158.387 0 1
202.542 158.384 3.12223 1
204.119 159.96 1.54408 1
205.696 158.388 0 1
205.696 158.385 3.1226 1
207.273 159.961 1.54435 1
208.849 158.39 0 1
208.85 158.387 3.12322 1
210.427 159.963 1.54477 1
212.003 158.392 0 1
212.003 158.389 3.12422 1
213.58 159.965 1.54529 1
215.155 158.395 0 1
215.156 158.393 3.12548 1
216.734 159.968 1.54592 1
218.308 158.399 0 1
218.307 158.398 3.12754 1
219.887 159.971 1.5469 1
221.462 158.401 0 1
221.46 158.402 3.13223 1
223.039 159.972 1.54829 1
224.618 158.397 0 1
224.606 158.405 3.14346 1
226.183 159.98 1.55266 1
229.322 159.998 1.56591 1
169.442 163.136 1.55109 1
171.012 161.552 0 1
171.022 161.558 3.13987 1
172.585 163.124 1.54772 1
174.157 161.545 0 1
174.159 161.546 3.12994 1
175.732 163.118 1.54613 1
177.309 161.545 0 1
177.308 161.543 3.12537 1
178.884 163.116 1.54511 1
180.461 161.542 0 1
180.461 161.54 3.1235 1
182.036 163.114 1.54429 1
183.614 161.54 0 1
183.613 161.538 3.12209 1
185.19 163.112 1.54369 1
186.768 161.538 0 1
186.767 161.536 3.12117 1
188.344 163.111 1.54324 1
189.922 161.537 0 1
189.922 161.534 3.12048 1
191.499 163.109 1.54289 1
193.077 161.535 0 1
193.077 161.533 3.11998 1
194.654 163.108 1.54264 1
196.232 161.534 0 1
196.232 161.532 3.11965 1
197.809 163.107 1.54251 1
199.387 161.534 0 1
199.387 161.531 3.11951 1
200.965 163.107 1.5425 1
202.542 161.534 0 1
202.542 161.531 3.11958 1
204.12 163.108 1.54259 1
205.697 161.534 0 1
205.697 161.532 3.11985 1
207.274 163.108 1.5428 1
208.851 161.536 0 1
208.851 161.533 3.12031 1
210.429 163.11 1.54312 1
212.005 161.537 0 1
212.005 161.535 3.12097 1
213.583 163.112 1.54356 1
215.159 161.54 0 1
215.159 161.537 3.12184 1
216.737 163.114 1.54413 1
218.312 161.542 0 1
218.313 161.54 3.12301 1
219.89 163.116 1.54488 1
221.465 161.544 0 1
221.466 161.542 3.12472 1
223.042 163.119 1.54581 1
224.614 161.548 0 1
224.613 161.547 3.12817 1
226.19 163.124 1.54746 1
227.762 161.556 0 1
227.757 161.559 3.13544 1
229.34 163.13 1.54936 1
230.916 161.555 0 1
230.897 161.576 3.15456 1
232.484 163.139 1.56323 1
166.287 166.287 1.5501 1
167.863 164.711 0 1
169.434 166.28 1.54762 1
167.866 164.714 3.13513 1
171.01 164.702 0 1
171.01 164.702 3.12757 1
172.581 166.273 1.54573 1
174.157 164.695 0 1
174.156 164.694 3.12406 1
175.73 166.268 1.5445 1
177.307 164.692 0 1
177.306 164.69 3.122 1
178.882 166.265 1.54362 1
180.459 164.689 0 1
180.458 164.687 3.12069 1
182.034 166.263 1.54293 1
183.612 164.688 0 1
183.612 164.686 3.11967 1
185.188 166.261 1.5424 1
186.767 164.686 0 1
186.766 164.684 3.11891 1
188.343 166.26 1.54199 1
189.921 164.685 0 1
189.921 164.683 3.11834 1
191.498 166.259 1.54169 1
193.076 164.684 0 1
193.076 164.682 3.11793 1
194.654 166.258 1.54149 1
196.232 164.683 0 1
196.231 164.681 3.11766 1
197.809 166.257 1.54138 1
199.387 164.683 0 1
199.387 164.681 3.11755 1
200.965 166.257 1.54136 1
202.542 164.683 0 1
202.542 164.681 3.11761 1
204.12 166.258 1.54144 1
205.697 164.683 0 1
205.698 164.681 3.11782 1
207.275 166.258 1.54161 1
208.852 164.684 0 1
208.853 164.682 3.11819 1
210.431 166.259 1.54189 1
212.007 164.685 0 1
212.008 164.684 3.11873 1
213.585 166.261 1.54227 1
215.161 164.687 0 1
215.162 164.685 3.11944 1
216.74 166.262 1.54277 1
218.315 164.689 0 1
218.316 164.687 3.12038 1
219.893 166.264 1.54341 1
221.467 164.691 0 1
221.469 164.689 3.12165 1
223.045 166.267 1.54423 1
224.619 164.695 0 1
224.62 164.693 3.12354 1
226.197 166.27 1.54535 1
227.769 164.7 0 1
227.77 164.698 3.12615 1
229.348 166.274 1.54673 1
230.92 164.702 0 1
230.917 164.705 3.13317 1
232.496 166.278 1.54887 1
234.072 164.702 0 1
234.055 164.72 3.15258 1
235.637 166.289 1.56249 1
163.136 169.442 1.55109 1
164.711 167.863 0 1
166.28 169.434 1.54762 1
164.714 167.866 3.13513 1
167.857 167.857 0 1
169.427 169.427 1.54576 1
167.856 167.856 3.12691 1
171.005 167.851 0 1
171.003 167.849 3.12371 1
172.577 169.422 1.54435 1
174.154 167.845 0 1
174.153 167.844 3.12149 1
175.728 169.418 1.54329 1
177.305 167.842 0 1
177.304 167.84 3.11991 1
178.88 169.416 1.54249 1
180.457 167.839 0 1
180.456 167.838 3.11876 1
182.033 169.414 1.54187 1
183.611 167.838 0 1
183.61 167.836 3.11788 1
185.187 169.412 1.54139 1
186.765 167.836 0 1
186.765 167.835 3.11721 1
188.342 169.411 1.54103 1
189.92 167.835 0 1
189.92 167.834 3.1167 1
191.498 169.41 1.54076 1
193.076 167.834 0 1
193.075 167.833 3.11634 1
194.653 169.41 1.54058 1
196.231 167.834 0 1
196.231 167.832 3.11611 1
197.809 169.409 1.54048 1
199.387 167.833 0 1
199.387 167.832 3.11602 1
200.965 169.409 1.54046 1
202.543 167.833 0 1
202.543 167.832 3.11607 1
204.121 169.409 1.54053 1
205.698 167.834 0 1
205.698 167.832 3.11625 1
207.276 169.41 1.54068 1
208.854 167.835 0 1
208.854 167.833 3.11656 1
210.432 169.41 1.54092 1
212.009 167.836 0 1
212.009 167.834 3.11703 1
213.587 169.411 1.54126 1
215.163 167.837 0 1
215.164 167.835 3.11765 1
216.742 169.413 1.5417 1
218.317 167.838 0 1
218.318 167.837 3.11847 1
219.896 169.414 1.54226 1
221.471 167.841 0 1
221.472 167.839 3.11953 1
223.049 169.416 1.54299 1
224.623 167.843 0 1
224.624 167.841 3.12093 1
226.201 169.419 1.54392 1
227.775 167.846 0 1
227.776 167.844 3.12274 1
229.352 169.422 1.54508 1
230.925 167.849 0 1
230.926 167.848 3.12555 1
232.501 169.425 1.54663 1
234.073 167.853 0 1
234.071 167.856 3.1328 1
235.647 169.431 1.54909 1
237.221 167.856 0 1
237.203 167.873 3.15306 1
238.781 169.446 1.56419 1
159.976 172.585 1.55747 1
158.397 174.152 0 1
158.416 174.17 3.15093 1
161.552 171.012 0 1
161.558 171.022 3.13987 1
163.124 172.585 1.54772 1
161.545 174.157 0 1
161.546 174.159 3.12994 1
164.702 171.01 0 1
164.702 171.01 3.12757 1
166.273 172.581 1.54573 1
164.695 174.157 0 1
164.694 174.156 3.12406 1
167.851 171.005 0 1
167.849 171.003 3.12371 1
169.422 172.577 1.54435 1
167.845 174.154 0 1
167.844 174.153 3.12149 1
171 171 0 1
170.999 170.999 3.12138 1
174.151 170.996 0 1
174.15 170.995 3.11965 1
170.996 174.151 0 1
170.995 174.15 3.11965 1
172.573 172.573 1.54322 1
174.148 174.148 0 1
174.147 174.147 3.11819 1
177.303 170.993 0 1
177.302 170.992 3.11831 1
175.725 172.57 1.54231 1
177.301 174.145 0 1
177.3 174.144 3.11702 1
180.456 170.991 0 1
180.455 170.989 3.11728 1
178.878 172.568 1.54159 1
180.454 174.144 0 1
180.453 174.143 3.11609 1
183.61 170.989 0 1
183.609 170.988 3.11648 1
182.032 172.566 1.54103 1
183.609 174.142 0 1
183.608 174.141 3.11536 1
186.764 170.988 0 1
186.764 170.987 3.11587 1
185.186 172.565 1.54059 1
186.764 174.141 0 1
186.763 174.14 3.11479 1
189.92 170.987 0 1
189.919 170.986 3.11541 1
188.341 172.564 1.54026 1
189.919 174.14 0 1
189.919 174.139 3.11437 1
193.075 170.986 0 1
193.075 170.985 3.11508 1
191.497 172.563 1.54001 1
193.075 174.14 0 1
193.075 174.139 3.11406 1
196.231 170.986 0 1
196.231 170.985 3.11488 1
194.653 172.562 1.53984 1
196.231 174.139 0 1
196.231 174.139 3.11388 1
199.387 170.986 0 1
199.387 170.985 3.11479 1
197.809 172.562 1.53975 1
199.387 174.139 0 1
199.387 174.138 3.1138 1
202.543 170.986 0 1
202.543 170.985 3.11483 1
200.965 172.562 1.53974 1
202.543 174.139 0 1
202.543 174.138 3.11383 1
205.699 170.986 0 1
205.699 170.985 3.11499 1
204.121 172.562 1.5398 1
205.699 174.139 0 1
205.7 174.139 3.11397 1
208.855 170.987 0 1
208.855 170.985 3.11527 1
207.277 172.563 1.53993 1
208.855 174.14 0 1
208.856 174.139 3.11422 1
212.01 170.987 0 1
212.011 170.986 3.11568 1
210.433 172.563 1.54015 1
212.011 174.14 0 1
212.012 174.139 3.1146 1
215.165 170.988 0 1
215.166 170.987 3.11624 1
213.588 172.564 1.54045 1
215.167 174.141 0 1
215.167 174.14 3.1151 1
218.32 170.99 0 1
218.32 170.988 3.11697 1
216.743 172.565 1.54085 1
218.321 174.142 0 1
218.322 174.141 3.11576 1
221.473 170.991 0 1
221.475 170.99 3.1179 1
219.898 172.566 1.54136 1
221.476 174.143 0 1
221.476 174.142 3.11659 1
224.626 170.993 0 1
224.628 170.992 3.11907 1
223.052 172.568 1.542 1
224.629 174.145 0 1
224.63 174.144 3.11764 1
227.778 170.996 0 1
227.78 170.994 3.12057 1
226.204 172.57 1.54281 1
227.781 174.147 0 1
227.782 174.146 3.11895 1
230.928 170.999 0 1
230.93 170.997 3.12259 1
229.356 172.572 1.54384 1
230.932 174.15 0 1
230.933 174.148 3.12065 1
234.076 171.003 0 1
234.078 171.002 3.12576 1
232.505 172.576 1.54516 1
234.08 174.154 0 1
234.082 174.153 3.12299 1
237.22 171.01 0 1
237.218 171.013 3.13407 1
235.651 172.582 1.54702 1
237.227 174.16 0 1
237.228 174.16 3.12692 1
240.361 171.017 0 1
240.34 171.041 3.15892 1
238.794 172.591 1.55056 1
240.376 174.163 0 1
240.37 174.173 3.13926 1
156.845 175.747 1.5662 1
159.973 175.734 1.54857 1
158.403 177.312 0 1
158.405 177.317 3.13523 1
163.118 175.732 1.54613 1
161.545 177.309 0 1
161.543 177.308 3.12537 1
166.268 175.73 1.5445 1
164.692 177.307 0 1
164.69 177.306 3.122 1
169.418 175.728 1.54329 1
167.842 177.305 0 1
167.84 177.304 3.11991 1
170.993 177.303 0 1
170.992 177.302 3.11831 1
172.57 175.725 1.54231 1
174.145 177.301 0 1
174.144 177.3 3.11702 1
175.723 175.723 1.54151 1
177.299 177.299 0 1
177.298 177.298 3.11597 1
178.876 175.721 1.54086 1
180.453 177.297 0 1
180.452 177.296 3.11512 1
182.03 175.719 1.54035 1
183.608 177.296 0 1
183.607 177.295 3.11445 1
185.185 175.718 1.53994 1
186.763 177.295 0 1
186.762 177.294 3.11392 1
188.341 175.717 1.53963 1
189.919 177.294 0 1
189.918 177.294 3.11352 1
191.497 175.717 1.53941 1
193.075 177.294 0 1
193.074 177.293 3.11324 1
194.653 175.716 1.53925 1
196.231 177.294 0 1
196.231 177.293 3.11306 1
197.809 175.716 1.53917 1
199.387 177.294 0 1
199.387 177.293 3.11299 1
200.965 175.716 1.53915 1
202.544 177.294 0 1
202.544 177.293 3.11301 1
204.122 175.716 1.5392 1
205.7 177.294 0 1
205.7 177.293 3.11314 1
207.278 175.716 1.53933 1
208.856 177.294 0 1
208.856 177.293 3.11337 1
210.434 175.717 1.53952 1
212.012 177.294 0 1
212.012 177.294 3.11372 1
213.59 175.717 1.5398 1
215.168 177.295 0 1
215.168 177.294 3.11418 1
216.745 175.718 1.54016 1
218.323 177.296 0 1
218.323 177.295 3.11479 1
219.9 175.719 1.54062 1
221.477 177.297 0 1
221.478 177.296 3.11555 1
223.054 175.72 1.54121 1
224.631 177.298 0 1
224.632 177.297 3.1165 1
226.206 175.722 1.54193 1
227.783 177.3 0 1
227.785 177.299 3.11768 1
229.358 175.724 1.54284 1
230.934 177.302 0 1
230.936 177.301 3.11916 1
232.508 175.727 1.54396 1
234.084 177.306 0 1
234.086 177.304 3.12106 1
235.656 175.732 1.54537 1
237.232 177.309 0 1
237.234 177.308 3.12372 1
238.804 175.736 1.5474 1
240.38 177.31 0 1
240.38 177.311 3.12967 1
241.95 175.737 1.55706 1
243.526 177.306 0 1
243.507 177.323 3.15066 1
156.831 178.893 1.55312 1
155.251 180.46 0 1
155.262 180.472 3.14575 1
159.971 178.887 1.54733 1
158.397 180.464 0 1
158.397 180.465 3.12875 1
163.116 178.884 1.54511 1
161.542 180.461 0 1
161.54 180.461 3.1235 1
166.265 178.882 1.54362 1
164.689 180.459 0 1
164.687 180.458 3.12069 1
169.416 178.88 1.54249 1
167.839 180.457 0 1
167.838 180.456 3.11876 1
170.991 180.456 0 1
170.989 180.455 3.11728 1
172.568 178.878 1.54159 1
174.144 180.454 0 1
174.143 180.453 3.11609 1
175.721 178.876 1.54086 1
177.297 180.453 0 1
177.296 180.452 3.11512 1
178.875 178.875 1.54027 1
180.452 180.452 0 1
180.451 180.451 3.11434 1
182.029 178.874 1.5398 1
183.607 180.451 0 1
183.606 180.45 3.11371 1
185.185 178.873 1.53942 1
186.762 180.45 0 1
186.762 180.449 3.11321 1
188.34 178.872 1.53913 1
189.918 180.449 0 1
189.918 180.449 3.11283 1
191.496 178.871 1.53892 1
193.074 180.449 0 1
193.074 180.449 3.11257 1
194.653 178.871 1.53877 1
196.231 180.449 0 1
196.231 180.448 3.1124 1
197.809 178.871 1.53869 1
199.387 180.449 0 1
199.387 180.448 3.11233 1
200.966 178.871 1.53868 1
202.544 180.449 0 1
202.544 180.448 3.11235 1
204.122 178.871 1.53872 1
205.7 180.449 0 1
205.7 180.448 3.11247 1
207.278 178.871 1.53884 1
208.857 180.449 0 1
208.857 180.448 3.11268 1
210.435 178.871 1.53902 1
212.013 180.449 0 1
212.013 180.449 3.113 1
213.59 178.872 1.53927 1
215.168 180.45 0 1
215.169 180.449 3.11344 1
216.746 178.872 1.5396 1
218.324 180.45 0 1
218.324 180.45 3.114 1
219.901 178.873 1.54003 1
221.478 180.451 0 1
221.479 180.45 3.1147 1
223.055 178.874 1.54056 1
224.632 180.452 0 1
224.633 180.451 3.11558 1
226.208 178.876 1.54123 1
227.785 180.454 0 1
227.786 180.453 3.11667 1
229.36 178.877 1.54205 1
230.936 180.456 0 1
230.938 180.455 3.11801 1
232.511 178.88 1.54306 1
234.087 180.458 0 1
234.088 180.457 3.1197 1
235.66 178.883 1.54433 1
237.235 180.46 0 1
237.237 180.459 3.12193 1
238.808 178.885 1.54604 1
240.379 180.463 0 1
240.382 180.463 3.12553 1
241.95 178.888 1.54856 1
243.518 180.467 0 1
243.515 180.472 3.13597 1
245.075 178.902 1.56637 1
153.695 182.048 1.56429 1
156.825 182.04 1.54911 1
155.256 183.618 0 1
155.258 183.622 3.13573 1
159.968 182.039 1.54609 1
158.395 183.616 0 1
158.393 183.616 3.12586 1
163.114 182.036 1.54429 1
161.54 183.614 0 1
161.538 183.613 3.12209 1
166.263 182.034 1.54293 1
164.688 183.612 0 1
164.686 183.612 3.11967 1
169.414 182.033 1.54187 1
167.838 183.611 0 1
167.836 183.61 3.11788 1
170.989 183.61 0 1
170.988 183.609 3.11648 1
172.566 182.032 1.54103 1
174.142 183.609 0 1
174.141 183.608 3.11536 1
175.719 182.03 1.54035 1
177.296 183.608 0 1
177.295 183.607 3.11445 1
178.874 182.029 1.5398 1
180.451 183.607 0 1
180.45 183.606 3.11371 1
182.029 182.029 1.53935 1
183.606 183.606 0 1
183.606 183.606 3.11311 1
185.184 182.028 1.539 1
186.762 183.605 0 1
186.761 183.605 3.11264 1
188.34 182.027 1.53872 1
189.918 183.605 0 1
189.918 183.605 3.11228 1
191.496 182.027 1.53852 1
193.074 183.605 0 1
193.074 183.604 3.11202 1
194.652 182.027 1.53838 1
196.231 183.604 0 1
196.231 183.604 3.11186 1
197.809 182.026 1.5383 1
199.387 183.604 0 1
199.387 183.604 3.11179 1
200.966 182.026 1.53829 1
202.544 183.604 0 1
202.544 183.604 3.11181 1
204.122 182.026 1.53833 1
205.701 183.604 0 1
205.701 183.604 3.11192 1
207.279 182.026 1.53844 1
208.857 183.604 0 1
208.857 183.604 3.11213 1
210.435 182.027 1.53861 1
212.013 183.605 0 1
212.014 183.604 3.11243 1
213.591 182.027 1.53884 1
215.169 183.605 0 1
215.17 183.605 3.11284 1
216.747 182.027 1.53916 1
218.325 183.606 0 1
218.325 183.605 3.11337 1
219.902 182.028 1.53955 1
221.479 183.606 0 1
221.48 183.606 3.11403 1
223.056 182.029 1.54005 1
224.633 183.607 0 1
224.634 183.607 3.11486 1
226.21 182.03 1.54067 1
227.786 183.608 0 1
227.788 183.608 3.11588 1
229.362 182.032 1.54143 1
230.938 183.61 0 1
230.94 183.609 3.11714 1
232.513 182.033 1.54238 1
234.089 183.612 0 1
234.09 183.611 3.11873 1
235.663 182.036 1.5436 1
237.237 183.614 0 1
237.239 183.613 3.12083 1
238.809 182.038 1.54524 1
240.381 183.617 0 1
240.384 183.617 3.12397 1
241.951 182.043 1.54776 1
243.523 183.621 0 1
243.523 183.623 3.13008 1
245.085 182.05 1.55465 1
246.662 183.618 0 1
246.651 183.634 3.15028 1
153.691 185.198 1.55558 1
152.116 186.767 0 1
152.13 186.786 3.15472 1
156.824 185.194 1.54816 1
155.253 186.772 0 1
155.253 186.774 3.13119 1
159.966 185.192 1.54545 1
158.394 186.77 0 1
158.391 186.77 3.12453 1
163.112 185.19 1.54369 1
161.538 186.768 0 1
161.536 186.767 3.12117 1
166.261 185.188 1.5424 1
164.686 186.767 0 1
164.684 186.766 3.11891 1
169.412 185.187 1.54139 1
167.836 186.765 0 1
167.835 186.765 3.11721 1
170.988 186.764 0 1
170.987 186.764 3.11587 1
172.565 185.186 1.54059 1
174.141 186.764 0 1
174.14 186.763 3.11479 1
175.718 185.185 1.53994 1
177.295 186.763 0 1
177.294 186.762 3.11392 1
178.873 185.185 1.53942 1
180.45 186.762 0 1
180.449 186.762 3.11321 1
182.028 185.184 1.539 1
183.605 186.762 0 1
183.605 186.761 3.11264 1
185.183 185.183 1.53866 1
186.761 186.761 0 1
186.761 186.761 3.11219 1
188.339 185.183 1.5384 1
189.917 186.761 0 1
189.917 186.761 3.11184 1
191.496 185.183 1.5382 1
193.074 186.761 0 1
193.074 186.76 3.11159 1
194.652 185.182 1.53807 1
196.231 186.761 0 1
196.231 186.76 3.11144 1
197.809 185.182 1.538 1
199.387 186.76 0 1
199.387 186.76 3.11137 1
200.966 185.182 1.53798 1
202.544 186.76 0 1
202.544 186.76 3.11139 1
204.122 185.182 1.53802 1
205.701 186.76 0 1
205.701 186.76 3.11149 1
207.279 185.182 1.53812 1
208.857 186.761 0 1
208.858 186.76 3.11169 1
210.435 185.182 1.53828 1
212.014 186.761 0 1
212.014 186.76 3.11197 1
213.592 185.183 1.5385 1
215.17 186.761 0 1
215.17 186.761 3.11237 1
216.747 185.183 1.5388 1
218.325 186.761 0 1
218.326 186.761 3.11287 1
219.903 185.184 1.53918 1
221.48 186.762 0 1
221.481 186.761 3.11351 1
223.057 185.184 1.53965 1
224.634 186.763 0 1
224.635 186.762 3.11429 1
226.211 185.185 1.54023 1
227.788 186.763 0 1
227.789 186.763 3.11527 1
229.363 185.186 1.54096 1
230.94 186.765 0 1
230.941 186.764 3.11647 1
232.515 185.188 1.54186 1
234.09 186.766 0 1
234.092 186.766 3.11799 1
235.664 185.19 1.54301 1
237.239 186.768 0 1
237.241 186.768 3.11998 1
238.811 185.192 1.54453 1
240.385 186.771 0 1
240.387 186.77 3.12273 1
241.955 185.196 1.54662 1
243.528 186.773 0 1
243.53 186.773 3.12725 1
245.095 185.199 1.55027 1
246.669 186.772 0 1
246.662 186.778 3.14053 1
153.685 188.35 1.55192 1
152.116 189.925 0 1
152.116 189.937 3.14319 1
156.821 188.348 1.54729 1
155.25 189.926 0 1
155.247 189.927 3.12847 1
159.964 188.346 1.54491 1
158.392 189.924 0 1
158.389 189.924 3.12348 1
163.111 188.344 1.54324 1
161.537 189.922 0 1
161.534 189.922 3.12048 1
166.26 188.343 1.54199 1
164.685 189.921 0 1
164.683 189.921 3.11834 1
169.411 188.342 1.54103 1
167.835 189.92 0 1
167.834 189.92 3.1167 1
170.987 189.92 0 1
170.986 189.919 3.11541 1
172.564 188.341 1.54026 1
174.14 189.919 0 1
174.139 189.919 3.11437 1
175.717 188.341 1.53963 1
177.294 189.919 0 1
177.294 189.918 3.11352 1
178.872 188.34 1.53913 1
180.449 189.918 0 1
180.449 189.918 3.11283 1
182.027 188.34 1.53872 1
183.605 189.918 0 1
183.605 189.918 3.11228 1
185.183 188.339 1.5384 1
186.761 189.917 0 1
186.761 189.917 3.11184 1
188.339 188.339 1.53814 1
189.917 189.917 0 1
189.917 189.917 3.11151 1
191.496 188.339 1.53795 1
193.074 189.917 0 1
193.074 189.917 3.11127 1
194.652 188.339 1.53783 1
196.231 189.917 0 1
196.231 189.917 3.11112 1
197.809 188.339 1.53776 1
199.387 189.917 0 1
199.387 189.917 3.11105 1
200.966 188.339 1.53774 1
202.544 189.917 0 1
202.544 189.917 3.11106 1
204.123 188.339 1.53778 1
205.701 189.917 0 1
205.701 189.917 3.11116 1
207.279 188.339 1.53787 1
208.858 189.917 0 1
208.858 189.917 3.11135 1
210.436 188.339 1.53802 1
212.014 189.917 0 1
212.014 189.917 3.11163 1
213.592 188.339 1.53824 1
215.17 189.917 0 1
215.17 189.917 3.11201 1
216.748 188.339 1.53852 1
218.326 189.918 0 1
218.326 189.917 3.11249 1
219.903 188.34 1.53889 1
221.481 189.918 0 1
221.481 189.918 3.11311 1
223.058 188.34 1.53934 1
224.635 189.918 0 1
224.636 189.918 3.11387 1
226.212 188.341 1.5399 1
227.788 189.919 0 1
227.789 189.919 3.11481 1
229.365 188.342 1.54059 1
230.941 189.92 0 1
230.942 189.92 3.11597 1
232.516 188.343 1.54146 1
234.092 189.921 0 1
234.093 189.921 3.11744 1
235.666 188.344 1.54256 1
237.241 189.923 0 1
237.243 189.922 3.11933 1
238.814 188.346 1.544 1
240.388 189.924 0 1
240.39 189.924 3.12188 1
241.959 188.349 1.54596 1
243.532 189.926 0 1
243.534 189.926 3.12585 1
245.101 188.35 1.54905 1
246.672 189.926 0 1
246.67 189.929 3.13598 1
248.232 188.351 1.56387 1
153.678 191.503 1.54995 1
152.104 193.077 0 1
152.106 193.077 3.13807 1
156.818 191.502 1.54663 1
155.246 193.078 0 1
155.243 193.078 3.12715 1
159.962 191.5 1.54446 1
158.389 193.078 0 1
158.387 193.078 3.12278 1
163.109 191.499 1.54289 1
161.535 193.077 0 1
161.533 193.077 3.11998 1
166.259 191.498 1.54169 1
164.684 193.076 0 1
164.682 193.076 3.11793 1
169.41 191.498 1.54076 1
167.834 193.076 0 1
167.833 193.075 3.11634 1
170.986 193.075 0 1
170.985 193.075 3.11508 1
172.563 191.497 1.54001 1
174.14 193.075 0 1
174.139 193.075 3.11406 1
175.717 191.497 1.53941 1
177.294 193.075 0 1
177.293 193.074 3.11324 1
178.871 191.496 1.53892 1
180.449 193.074 0 1
180.449 193.074 3.11257 1
182.027 191.496 1.53852 1
183.605 193.074 0 1
183.604 193.074 3.11202 1
185.183 191.496 1.5382 1
186.761 193.074 0 1
186.76 193.074 3.11159 1
188.339 191.496 1.53795 1
189.917 193.074 0 1
189.917 193.074 3.11127 1
191.495 191.495 1.53777 1
193.074 193.074 0 1
193.074 193.074 3.11103 1
194.652 191.495 1.53765 1
196.231 193.074 0 1
196.23 193.074 3.11088 1
197.809 191.495 1.53758 1
199.387 193.074 0 1
199.387 193.073 3.11082 1
200.966 191.495 1.53756 1
202.544 193.074 0 1
202.544 193.073 3.11083 1
204.123 191.495 1.5376 1
205.701 193.074 0 1
205.701 193.073 3.11093 1
207.279 191.495 1.53769 1
208.858 193.074 0 1
208.858 193.074 3.11111 1
210.436 191.495 1.53784 1
212.014 193.074 0 1
212.015 193.074 3.11138 1
213.592 191.495 1.53804 1
215.17 193.074 0 1
215.171 193.074 3.11175 1
216.748 191.496 1.53832 1
218.326 193.074 0 1
218.327 193.074 3.11222 1
219.904 191.496 1.53867 1
221.481 193.074 0 1
221.482 193.074 3.11282 1
223.058 191.496 1.53911 1
224.636 193.075 0 1
224.636 193.074 3.11356 1
226.212 191.497 1.53965 1
227.789 193.075 0 1
227.79 193.075 3.11448 1
229.366 191.497 1.54033 1
230.942 193.076 0 1
230.943 193.075 3.11562 1
232.517 191.498 1.54117 1
234.093 193.076 0 1
234.095 193.076 3.11705 1
235.668 191.499 1.54223 1
237.243 193.077 0 1
237.245 193.077 3.11888 1
238.816 191.501 1.54362 1
240.39 193.078 0 1
240.393 193.078 3.12134 1
241.962 191.502 1.54552 1
243.535 193.079 0 1
243.537 193.079 3.12511 1
245.105 191.504 1.54861 1
246.676 193.081 0 1
246.675 193.082 3.13341 1
248.236 191.507 1.55838 1
150.542 194.652 1.56303 1
153.675 194.653 1.54956 1
152.107 196.23 0 1
152.11 196.229 3.13643 1
156.816 194.655 1.54621 1
155.245 196.231 0 1
155.243 196.231 3.12645 1
159.961 194.655 1.54415 1
158.388 196.232 0 1
158.385 196.232 3.12232 1
163.108 194.654 1.54264 1
161.534 196.232 0 1
161.532 196.232 3.11965 1
166.258 194.654 1.54149 1
164.683 196.232 0 1
164.681 196.231 3.11766 1
169.41 194.653 1.54058 1
167.834 196.231 0 1
167.832 196.231 3.11611 1
170.986 196.231 0 1
170.985 196.231 3.11488 1
172.562 194.653 1.53984 1
174.139 196.231 0 1
174.139 196.231 3.11388 1
175.716 194.653 1.53925 1
177.294 196.231 0 1
177.293 196.231 3.11306 1
178.871 194.653 1.53877 1
180.449 196.231 0 1
180.448 196.231 3.1124 1
182.027 194.652 1.53838 1
183.604 196.231 0 1
183.604 196.231 3.11186 1
185.182 194.652 1.53807 1
186.761 196.231 0 1
186.76 196.231 3.11144 1
188.339 194.652 1.53783 1
189.917 196.231 0 1
189.917 196.231 3.11112 1
191.495 194.652 1.53765 1
193.074 196.231 0 1
193.074 196.23 3.11088 1
194.652 194.652 1.53752 1
196.231 196.231 0 1
196.23 196.23 3.11073 1
197.809 194.652 1.53745 1
199.387 196.231 0 1
199.387 196.23 3.11067 1
200.966 194.652 1.53744 1
202.544 196.23 0 1
202.544 196.23 3.11068 1
204.123 194.652 1.53747 1
205.701 196.231 0 1
205.701 196.23 3.11078 1
207.28 194.652 1.53756 1
208.858 196.231 0 1
208.858 196.23 3.11095 1
210.436 194.652 1.53771 1
212.014 196.231 0 1
212.015 196.23 3.11122 1
213.593 194.652 1.53791 1
215.171 196.231 0 1
215.171 196.231 3.11158 1
216.748 194.652 1.53818 1
218.326 196.231 0 1
218.327 196.231 3.11205 1
219.904 194.652 1.53852 1
221.481 196.231 0 1
221.482 196.231 3.11264 1
223.059 194.653 1.53895 1
224.636 196.231 0 1
224.637 196.231 3.11338 1
226.213 194.653 1.53949 1
227.79 196.231 0 1
227.791 196.231 3.11428 1
229.366 194.653 1.54015 1
230.942 196.231 0 1
230.944 196.231 3.1154 1
232.518 194.654 1.54097 1
234.094 196.232 0 1
234.095 196.231 3.1168 1
235.669 194.654 1.54201 1
237.244 196.232 0 1
237.246 196.232 3.1186 1
238.818 194.655 1.54336 1
240.392 196.232 0 1
240.394 196.232 3.121 1
241.965 194.656 1.54519 1
243.537 196.233 0 1
243.539 196.232 3.12462 1
245.108 194.656 1.548 1
246.679 196.232 0 1
246.679 196.232 3.13222 1
248.245 194.657 1.55568 1
150.55 197.81 1.55907 1
153.676 197.808 1.54921 1
152.11 199.387 0 1
152.113 199.387 3.1357 1
156.815 197.809 1.54602 1
155.245 199.387 0 1
155.243 199.387 3.1262 1
159.96 197.809 1.54399 1
158.387 199.387 0 1
158.385 199.387 3.12213 1
163.107 197.809 1.54251 1
161.534 199.387 0 1
161.531 199.387 3.11951 1
166.257 197.809 1.54138 1
164.683 199.387 0 1
164.681 199.387 3.11755 1
169.409 197.809 1.54048 1
167.833 199.387 0 1
167.832 199.387 3.11602 1
170.986 199.387 0 1
170.985 199.387 3.11479 1
172.562 197.809 1.53975 1
174.139 199.387 0 1
174.138 199.387 3.1138 1
175.716 197.809 1.53917 1
177.294 199.387 0 1
177.293 199.387 3.11299 1
178.871 197.809 1.53869 1
180.449 199.387 0 1
180.448 199.387 3.11233 1
182.026 197.809 1.5383 1
183.604 199.387 0 1
183.604 199.387 3.11179 1
185.182 197.809 1.538 1
186.76 199.387 0 1
186.76 199.387 3.11137 1
188.339 197.809 1.53776 1
189.917 199.387 0 1
189.917 199.387 3.11105 1
191.495 197.809 1.53758 1
193.074 199.387 0 1
193.073 199.387 3.11082 1
194.652 197.809 1.53745 1
196.231 199.387 0 1
196.23 199.387 3.11067 1
197.809 197.809 1.53739 1
199.387 199.387 0 1
199.387 199.387 3.1106 1
200.966 197.809 1.53737 1
202.544 199.387 0 1
202.545 199.387 3.11062 1
204.123 197.809 1.5374 1
205.701 199.387 0 1
205.701 199.387 3.11071 1
207.28 197.809 1.53749 1
208.858 199.387 0 1
208.858 199.387 3.11089 1
210.436 197.809 1.53763 1
212.015 199.387 0 1
212.015 199.387 3.11115 1
213.593 197.809 1.53784 1
215.171 199.387 0 1
215.171 199.387 3.11151 1
216.749 197.809 1.5381 1
218.326 199.387 0 1
218.327 199.387 3.11198 1
219.904 197.809 1.53844 1
221.482 199.387 0 1
221.482 199.387 3.11257 1
223.059 197.809 1.53887 1
224.636 199.387 0 1
224.637 199.387 3.1133 1
226.213 197.809 1.5394 1
227.79 199.387 0 1
227.791 199.387 3.11419 1
229.367 197.809 1.54005 1
230.943 199.387 0 1
230.944 199.387 3.11531 1
232.519 197.809 1.54086 1
234.094 199.387 0 1
234.096 199.387 3.1167 1
235.67 197.809 1.54189 1
237.244 199.387 0 1
237.246 199.387 3.11848 1
238.819 197.809 1.54322 1
240.392 199.387 0 1
240.394 199.386 3.12084 1
241.966 197.809 1.54501 1
243.537 199.386 0 1
243.54 199.386 3.12432 1
245.109 197.809 1.54766 1
246.679 199.385 0 1
246.678 199.384 3.13118 1
248.245 197.805 1.55385 1
150.549 200.963 1.55902 1
153.676 200.965 1.54917 1
152.107 202.544 0 1
152.109 202.544 3.13628 1
156.815 200.965 1.54598 1
155.244 202.542 0 1
155.242 202.543 3.12634 1
159.959 200.964 1.54397 1
158.387 202.542 0 1
158.384 202.542 3.12223 1
163.107 200.965 1.5425 1
161.534 202.542 0 1
161.531 202.542 3.11958 1
166.257 200.965 1.54136 1
164.683 202.542 0 1
164.681 202.542 3.11761 1
169.409 200.965 1.54046 1
167.833 202.543 0 1
167.832 202.543 3.11607 1
170.986 202.543 0 1
170.985 202.543 3.11483 1
172.562 200.965 1.53974 1
174.139 202.543 0 1
174.138 202.543 3.11383 1
175.716 200.965 1.53915 1
177.294 202.544 0 1
177.293 202.544 3.11301 1
178.871 200.966 1.53868 1
180.449 202.544 0 1
180.448 202.544 3.11235 1
182.026 200.966 1.53829 1
183.604 202.544 0 1
183.604 202.544 3.11181 1
185.182 200.966 1.53798 1
186.76 202.544 0 1
186.76 202.544 3.11139 1
188.339 200.966 1.53774 1
189.917 202.544 0 1
189.917 202.544 3.11106 1
191.495 200.966 1.53756 1
193.074 202.544 0 1
193.073 202.544 3.11083 1
194.652 200.966 1.53744 1
196.23 202.544 0 1
196.23 202.544 3.11068 1
197.809 200.966 1.53737 1
199.387 202.544 0 1
199.387 202.545 3.11062 1
200.966 200.966 1.53735 1
202.544 202.544 0 1
202.545 202.545 3.11063 1
204.123 200.966 1.53739 1
205.701 202.544 0 1
205.702 202.545 3.11072 1
207.28 200.966 1.53747 1
208.858 202.544 0 1
208.858 202.545 3.1109 1
210.436 200.966 1.53762 1
212.015 202.544 0 1
212.015 202.544 3.11117 1
213.593 200.966 1.53782 1
215.171 202.544 0 1
215.171 202.544 3.11153 1
216.749 200.966 1.53809 1