ITEM: TIMESTEP
0
ITEM: NUMBER OF ATOMS
26431
ITEM: BOX BOUNDS ff ff ff
0.0000000000000000e+00 4.0000000000000000e+02
0.0000000000000000e+00 4.0000000000000000e+02
0.0000000000000000e+00 8.0000000000000000e+02
ITEM: ATOMS x y z type
185.243 147.6 1.58703 1
188.339 147.53 1.58026 1
191.481 147.47 1.6102 1
193.215 146.157 0 1
193.115 145.93 3.12426 1
194.68 147.543 1.66254 1
196.249 146.163 0 1
196.235 145.879 3.1253 1
197.816 147.511 1.65825 1
199.386 146.15 0 1
199.386 145.868 3.12888 1
200.956 147.511 1.65822 1
202.523 146.162 0 1
202.537 145.878 3.12523 1
204.092 147.542 1.66244 1
205.556 146.155 0 1
205.657 145.928 3.12417 1
207.292 147.468 1.61012 1
210.434 147.526 1.58046 1
213.534 147.595 1.58763 1
178.916 150.658 1.62705 1
180.605 149.297 0 1
180.531 149.073 3.12955 1
182.091 150.672 1.65035 1
183.645 149.192 0 1
183.61 149.034 3.15267 1
185.207 150.588 1.62419 1
186.786 149.144 0 1
186.791 149.034 3.16759 1
188.368 150.576 1.58745 1
189.933 149.056 0 1
189.927 148.986 3.16138 1
191.512 150.542 1.56812 1
193.077 148.969 0 1
193.043 148.971 3.17176 1
196.235 148.982 0 1
196.242 149.022 3.1889 1
199.386 148.98 0 1
199.386 149.014 3.18587 1
202.537 148.982 0 1
202.53 149.021 3.18877 1
205.696 148.967 0 1
205.73 148.969 3.17145 1
207.262 150.539 1.56759 1
208.841 149.052 0 1
208.846 148.983 3.1608 1
210.407 150.572 1.58612 1
211.989 149.137 0 1
211.984 149.03 3.16666 1
213.57 150.58 1.62109 1
215.137 149.183 0 1
215.168 149.028 3.15311 1
216.696 150.656 1.64254 1
218.224 149.313 0 1
218.271 149.082 3.12694 1
219.898 150.648 1.63202 1
222.916 150.701 1.61201 1
172.629 153.8 1.63437 1
174.292 152.438 0 1
174.24 152.207 3.13057 1
175.798 153.799 1.64332 1
177.341 152.264 0 1
177.307 152.156 3.15951 1
178.904 153.699 1.59802 1
180.476 152.141 0 1
180.461 152.142 3.17131 1
183.625 152.123 0 1
183.65 152.151 3.17699 1
215.153 152.117 0 1
215.13 152.138 3.17175 1
218.306 152.127 0 1
218.314 152.125 3.16816 1
219.851 153.714 1.58033 1
221.406 152.25 0 1
221.42 152.199 3.177 1
222.995 153.761 1.62453 1
224.458 152.321 0 1
224.564 152.189 3.14269 1
226.151 153.768 1.61379 1
166.405 156.979 1.61088 1
169.431 156.89 1.60759 1
171.129 155.432 0 1
171.023 155.329 3.15262 1
172.61 156.872 1.6141 1
174.179 155.295 0 1
174.172 155.29 3.16951 1
177.319 155.27 0 1
177.351 155.285 3.17049 1
224.605 155.275 0 1
224.615 155.266 3.16101 1
226.171 156.839 1.59475 1
227.731 155.393 0 1
227.759 155.289 3.1521 1
229.267 156.942 1.64271 1
230.774 155.582 0 1
230.814 155.34 3.13169 1
232.424 156.932 1.64219 1
163.212 160.067 1.61305 1
164.889 158.611 0 1
166.339 160.061 1.62777 1
164.775 158.481 3.14316 1
167.908 158.54 0 1
169.47 160.004 1.57692 1
167.913 158.475 3.16747 1
171.008 158.402 0 1
171.003 158.39 3.15489 1
227.753 158.418 0 1
227.719 158.433 3.16919 1
230.888 158.443 0 1
230.891 158.44 3.16827 1
232.445 160.032 1.61875 1
233.887 158.561 0 1
234.018 158.469 3.15272 1
235.568 160.05 1.60679 1
160.067 163.212 1.61305 1
161.727 161.727 0 1
163.185 163.185 1.61608 1
161.615 161.615 3.14516 1
164.74 161.594 0 1
166.3 163.151 1.565 1
164.726 161.582 3.1644 1
167.868 161.569 0 1
167.891 161.59 3.15994 1
234.041 161.58 0 1
234.057 161.567 3.16086 1
235.601 163.173 1.61398 1
237.06 161.713 0 1
237.169 161.603 3.14099 1
238.725 163.201 1.61 1
156.979 166.405 1.61088 1
158.611 164.889 0 1
160.061 166.339 1.62777 1
158.481 164.775 3.14316 1
161.594 164.74 0 1
163.151 166.3 1.565 1
161.582 164.726 3.1644 1
164.713 164.713 0 1
164.731 164.731 3.15501 1
237.196 164.73 0 1
237.209 164.717 3.15915 1
238.749 166.327 1.61472 1
240.208 164.867 0 1
240.32 164.758 3.14251 1
241.866 166.359 1.61196 1
156.89 169.431 1.60759 1
158.54 167.908 0 1
160.004 169.47 1.57692 1
158.475 167.913 3.16747 1
161.569 167.868 0 1
161.59 167.891 3.15994 1
240.338 167.887 0 1
240.35 167.873 3.16277 1
241.87 169.488 1.62695 1
243.321 168.038 0 1
243.451 167.926 3.14184 1
244.951 169.558 1.60995 1
153.8 172.629 1.63437 1
155.432 171.129 0 1
155.329 171.023 3.15262 1
156.872 172.61 1.6141 1
155.295 174.179 0 1
155.29 174.172 3.16951 1
158.402 171.008 0 1
158.39 171.003 3.15489 1
241.924 172.621 1.57644 1
243.389 171.06 0 1
243.455 171.065 3.16643 1
243.524 174.16 0 1
243.536 174.156 3.15421 1
245.038 172.584 1.60718 1
246.596 174.179 3.15195 1
152.438 174.292 0 1
152.207 174.24 3.13057 1
153.799 175.798 1.64332 1
152.264 177.341 0 1
152.156 177.307 3.15951 1
155.27 177.319 0 1
155.285 177.351 3.17049 1
245.052 175.764 1.61307 1
246.493 174.284 0 1
246.627 177.337 0 1
246.629 177.324 3.17091 1
248.123 175.786 1.63345 1
249.714 177.4 3.1292 1
150.658 178.916 1.62705 1
149.297 180.605 0 1
149.073 180.531 3.12955 1
153.699 178.904 1.59802 1
152.141 180.476 0 1
152.142 180.461 3.17131 1
246.648 180.477 0 1
246.627 180.506 3.17395 1
248.11 178.952 1.6469 1
249.479 177.458 0 1
249.615 180.503 0 1
249.75 180.466 3.15385 1
150.672 182.091 1.65035 1
149.192 183.645 0 1
149.034 183.61 3.15267 1
152.123 183.625 0 1
152.151 183.65 3.17699 1
248.201 182.063 1.61189 1
249.685 183.645 0 1
249.745 183.637 3.17394 1
251.203 182.101 1.60426 1
147.6 185.243 1.58703 1
150.588 185.207 1.62419 1
149.144 186.786 0 1
149.034 186.791 3.16759 1
248.22 185.216 1.5751 1
249.796 186.773 0 1
249.793 186.747 3.17599 1
251.274 185.174 1.62213 1
252.598 186.879 0 1
252.835 186.796 3.12432 1
147.53 188.339 1.58026 1
150.576 188.368 1.58745 1
149.056 189.933 0 1
148.986 189.927 3.16138 1
249.8 189.929 0 1
249.765 189.943 3.18481 1
251.235 188.37 1.66113 1
252.624 189.931 0 1
252.904 189.923 3.12664 1
147.47 191.481 1.6102 1
146.157 193.215 0 1
145.93 193.115 3.12426 1
150.542 191.512 1.56812 1
148.969 193.077 0 1
148.971 193.043 3.17176 1
249.815 193.078 0 1
249.794 193.095 3.17204 1
251.287 191.513 1.65225 1
252.674 193.072 0 1
252.929 193.082 3.13064 1
147.543 194.68 1.66254 1
146.163 196.249 0 1
145.879 196.235 3.1253 1
148.982 196.235 0 1
149.022 196.242 3.1889 1
249.824 196.229 0 1
249.807 196.236 3.16626 1
251.324 194.668 1.63326 1
252.763 196.235 0 1
252.919 196.217 3.15443 1
147.511 197.816 1.65825 1
146.15 199.386 0 1
145.868 199.386 3.12888 1
148.98 199.386 0 1
149.014 199.386 3.18587 1
249.817 199.379 0 1
249.792 199.379 3.159 1
251.349 197.799 1.6244 1
254.317 197.872 1.57962 1
252.739 199.394 0 1
252.876 199.398 3.17328 1
147.511 200.956 1.65822 1
146.162 202.523 0 1
145.878 202.537 3.12523 1
148.982 202.537 0 1
149.021 202.53 3.18877 1
249.815 202.547 0 1
249.789 202.545 3.15983 1
251.314 200.963 1.61018 1
254.327 200.966 1.56414 1
252.735 202.534 0 1
252.874 202.53 3.17374 1
147.542 204.092 1.66244 1
146.155 205.556 0 1
145.928 205.657 3.12417 1
148.967 205.696 0 1
148.969 205.73 3.17145 1
249.818 205.696 0 1
249.796 205.685 3.17002 1
251.342 204.126 1.62709 1
254.311 204.059 1.57866 1
252.749 205.69 0 1
252.911 205.711 3.15544 1
147.468 207.292 1.61012 1
150.539 207.262 1.56759 1
149.052 208.841 0 1
148.983 208.846 3.1608 1
249.804 208.846 0 1
249.774 208.826 3.17903 1
251.307 207.251 1.6396 1
252.644 208.842 0 1
252.908 208.842 3.12951 1
147.526 210.434 1.58046 1
150.572 210.407 1.58612 1
149.137 211.989 0 1
149.03 211.984 3.16666 1
249.802 212 0 1
249.799 212.023 3.17419 1
251.245 210.401 1.65865 1
252.604 211.899 0 1
252.841 211.974 3.12548 1
147.595 213.534 1.58763 1
150.58 213.57 1.62109 1
149.183 215.137 0 1
149.028 215.168 3.15311 1
152.117 215.153 0 1
152.138 215.13 3.17175 1
248.225 213.557 1.57476 1
249.692 215.128 0 1
249.75 215.137 3.17367 1
251.28 213.598 1.62358 1
150.656 216.696 1.64254 1
149.313 218.224 0 1
149.082 218.271 3.12694 1
152.127 218.306 0 1
152.125 218.314 3.16816 1
246.655 218.299 0 1
246.635 218.271 3.17201 1
248.206 216.712 1.61111 1
249.622 218.272 0 1
249.755 218.309 3.15313 1
251.208 216.674 1.60487 1
150.648 219.898 1.63202 1
153.714 219.851 1.58033 1
152.25 221.406 0 1
152.199 221.42 3.177 1
246.639 221.446 0 1
246.641 221.457 3.16799 1
248.118 219.827 1.64466 1
249.491 221.321 0 1
249.71 221.389 3.12865 1
150.701 222.916 1.61201 1
153.761 222.995 1.62453 1
152.321 224.458 0 1
152.189 224.564 3.14269 1
155.275 224.605 0 1
155.266 224.615 3.16101 1
243.505 224.598 0 1
243.489 224.565 3.17039 1
245.079 223.015 1.5974 1
246.518 224.577 0 1
246.624 224.61 3.1592 1
248.125 223.004 1.62661 1
153.768 226.151 1.61379 1
156.839 226.171 1.59475 1
155.393 227.731 0 1
155.289 227.759 3.1521 1
158.418 227.753 0 1
158.433 227.719 3.16919 1
243.484 227.733 0 1
243.485 227.738 3.16892 1
244.977 226.113 1.64338 1
246.342 227.615 0 1
246.585 227.655 3.13201 1
156.942 229.267 1.64271 1
155.582 230.774 0 1
155.34 230.814 3.13169 1
158.443 230.888 0 1
158.44 230.891 3.16827 1
240.35 230.89 0 1
240.363 230.905 3.16031 1
241.896 229.292 1.61831 1
243.369 230.733 0 1
243.46 230.864 3.15267 1
244.995 229.268 1.64256 1
156.932 232.424 1.64219 1
160.032 232.445 1.61875 1
158.561 233.887 0 1
158.469 234.018 3.15272 1
161.58 234.041 0 1
161.567 234.057 3.16086 1
237.203 234.049 0 1
237.216 234.062 3.15779 1
238.758 232.451 1.61339 1
240.219 233.91 0 1
240.33 234.019 3.14004 1
241.881 232.416 1.6064 1
160.05 235.568 1.60679 1
163.173 235.601 1.61398 1
161.713 237.06 0 1
161.603 237.169 3.14099 1
164.73 237.196 0 1
164.717 237.209 3.15915 1
234.049 237.203 0 1
234.062 237.216 3.15779 1
235.608 235.608 1.6133 1
237.068 237.068 0 1
237.178 237.178 3.14007 1
238.733 235.577 1.60901 1
163.201 238.725 1.61 1
166.327 238.749 1.61472 1
164.867 240.208 0 1
164.758 240.32 3.14251 1
166.359 241.866 1.61196 1
167.887 240.338 0 1
167.873 240.35 3.16277 1
169.488 241.87 1.62695 1
172.621 241.924 1.57644 1
230.89 240.35 0 1
230.905 240.363 3.16031 1
229.292 241.896 1.61831 1
232.451 238.758 1.61339 1
233.91 240.219 0 1
234.019 240.33 3.14004 1
232.416 241.881 1.6064 1
235.577 238.733 1.60901 1
168.038 243.321 0 1
167.926 243.451 3.14184 1
169.558 244.951 1.60995 1
171.06 243.389 0 1
171.065 243.455 3.16643 1
174.16 243.524 0 1
174.156 243.536 3.15421 1
172.584 245.038 1.60718 1
175.764 245.052 1.61307 1
224.598 243.505 0 1
224.565 243.489 3.17039 1
223.015 245.079 1.5974 1
227.733 243.484 0 1
227.738 243.485 3.16892 1
226.113 244.977 1.64338 1
230.733 243.369 0 1
230.864 243.46 3.15267 1
229.268 244.995 1.64256 1
174.179 246.596 3.15195 1
174.284 246.493 0 1
177.337 246.627 0 1
177.324 246.629 3.17091 1
175.786 248.123 1.63345 1
180.477 246.648 0 1
180.506 246.627 3.17395 1
178.952 248.11 1.6469 1
182.063 248.201 1.61189 1
185.216 248.22 1.5751 1
213.557 248.225 1.57476 1
218.299 246.655 0 1
218.271 246.635 3.17201 1
216.712 248.206 1.61111 1
221.446 246.639 0 1
221.457 246.641 3.16799 1
219.827 248.118 1.64466 1
224.577 246.518 0 1
224.61 246.624 3.1592 1
223.004 248.125 1.62661 1
227.615 246.342 0 1
227.655 246.585 3.13201 1
177.4 249.714 3.1292 1
177.458 249.479 0 1
180.503 249.615 0 1
180.466 249.75 3.15385 1
183.645 249.685 0 1
183.637 249.745 3.17394 1
182.101 251.203 1.60426 1
186.773 249.796 0 1
186.747 249.793 3.17599 1
185.174 251.274 1.62213 1
189.929 249.8 0 1
189.943 249.765 3.18481 1
188.37 251.235 1.66113 1
193.078 249.815 0 1
193.095 249.794 3.17204 1
191.513 251.287 1.65225 1
196.229 249.824 0 1
196.236 249.807 3.16626 1
194.668 251.324 1.63326 1
199.379 249.817 0 1
199.379 249.792 3.159 1
197.799 251.349 1.6244 1
202.547 249.815 0 1
202.545 249.789 3.15983 1
200.963 251.314 1.61018 1
205.696 249.818 0 1
205.685 249.796 3.17002 1
204.126 251.342 1.62709 1
208.846 249.804 0 1
208.826 249.774 3.17903 1
207.251 251.307 1.6396 1
212 249.802 0 1
212.023 249.799 3.17419 1
210.401 251.245 1.65865 1
215.128 249.692 0 1
215.137 249.75 3.17367 1
213.598 251.28 1.62358 1
218.272 249.622 0 1
218.309 249.755 3.15313 1
216.674 251.208 1.60487 1
221.321 249.491 0 1
221.389 249.71 3.12865 1
186.879 252.598 0 1
186.796 252.835 3.12432 1
189.931 252.624 0 1
189.923 252.904 3.12664 1
193.072 252.674 0 1
193.082 252.929 3.13064 1
196.235 252.763 0 1
196.217 252.919 3.15443 1
197.872 254.317 1.57962 1
199.394 252.739 0 1
199.398 252.876 3.17328 1
200.966 254.327 1.56414 1
202.534 252.735 0 1
202.53 252.874 3.17374 1
204.059 254.311 1.57866 1
205.69 252.749 0 1
205.711 252.911 3.15544 1
208.842 252.644 0 1
208.842 252.908 3.12951 1
211.899 252.604 0 1
211.974 252.841 3.12548 1
185.214 147.493 4.69498 1
188.348 147.41 4.70205 1
191.485 147.395 4.7155 1
193.097 145.872 6.26836 1
194.66 147.405 4.72563 1
196.23 145.81 6.2708 1
197.811 147.382 4.72977 1
199.386 145.799 6.27296 1
200.961 147.381 4.7297 1
202.542 145.809 6.27067 1
204.112 147.404 4.72541 1
205.675 145.871 6.26814 1
207.288 147.393 4.71515 1
210.426 147.406 4.7015 1
213.56 147.489 4.6947 1
178.903 150.587 4.71123 1
180.501 149.02 6.27 1
182.057 150.562 4.73354 1
183.601 148.967 6.28416 1
185.179 150.513 4.74021 1
186.776 148.95 6.29589 1
188.358 150.533 4.74138 1
189.922 148.913 6.29967 1
191.495 150.516 4.73845 1
193.049 148.898 6.30486 1
196.231 148.932 6.3107 1
199.386 148.927 6.31239 1
202.541 148.931 6.31051 1
205.724 148.896 6.30445 1
207.279 150.514 4.73784 1
208.851 148.91 6.29905 1
210.417 150.529 4.74027 1
211.998 148.946 6.29515 1
213.597 150.507 4.73924 1
215.176 148.961 6.28341 1
216.725 150.551 4.7315 1
218.292 149.024 6.27038 1
219.891 150.566 4.71199 1
222.961 150.616 4.69118 1
172.612 153.729 4.70678 1
174.205 152.158 6.26886 1
175.76 153.703 4.7338 1
177.297 152.096 6.28834 1
178.868 153.651 4.73834 1
180.442 152.076 6.30631 1
183.618 152.084 6.314 1
215.158 152.075 6.31177 1
218.329 152.059 6.30662 1
219.866 153.69 4.74618 1
221.443 152.108 6.29899 1
223.043 153.687 4.73939 1
224.594 152.125 6.27297 1
226.178 153.718 4.71204 1
166.366 156.907 4.69652 1
169.422 156.843 4.72054 1
171.002 155.268 6.28123 1
172.565 156.813 4.73712 1
174.142 155.228 6.30477 1
177.312 155.229 6.31357 1
224.644 155.216 6.30607 1
226.206 156.792 4.73324 1
227.779 155.239 6.28581 1
229.306 156.849 4.73013 1
230.857 155.3 6.26738 1
232.442 156.87 4.704 1
163.172 160.02 4.70951 1
166.289 159.987 4.73658 1
164.738 158.427 6.27284 1
169.455 159.981 4.7413 1
167.878 158.406 6.30085 1
170.978 158.35 6.30627 1
227.761 158.378 6.31134 1
230.925 158.381 6.30256 1
232.496 159.973 4.73676 1
234.049 158.412 6.27511 1
235.614 160.01 4.71079 1
160.02 163.172 4.70951 1
163.128 163.128 4.73718 1
161.572 161.572 6.27747 1
166.287 163.135 4.73392 1
164.688 161.534 6.30567 1
167.854 161.545 6.31185 1
234.095 161.524 6.30414 1
235.657 163.117 4.73362 1
237.213 161.561 6.27694 1
238.768 163.159 4.70714 1
156.907 166.366 4.69652 1
159.987 166.289 4.73658 1
158.427 164.738 6.27284 1
163.135 166.287 4.73392 1
161.534 164.688 6.30567 1
164.694 164.694 6.31083 1
237.252 164.676 6.30352 1
238.807 166.271 4.73402 1
240.366 164.719 6.27561 1
241.915 166.32 4.70732 1
156.843 169.422 4.72054 1
159.981 169.455 4.7413 1
158.406 167.878 6.30085 1
161.545 167.854 6.31185 1
240.4 167.837 6.30337 1
241.944 169.44 4.73495 1
243.506 167.891 6.27091 1
245.024 169.519 4.69448 1
153.729 172.612 4.70678 1
155.268 171.002 6.28123 1
156.813 172.565 4.73712 1
155.228 174.142 6.30477 1
158.35 170.978 6.30627 1
243.525 171.031 6.2992 1
241.948 172.606 4.74026 1
243.578 174.131 6.30551 1
245.086 172.576 4.71966 1
246.659 174.157 6.28015 1
152.158 174.205 6.26886 1
153.703 175.76 4.7338 1
152.096 177.297 6.28834 1
155.229 177.312 6.31357 1
245.111 175.718 4.73714 1
246.694 177.297 6.30398 1
248.195 175.769 4.70579 1
249.764 177.365 6.26664 1
150.587 178.903 4.71123 1
149.02 180.501 6.27 1
153.651 178.868 4.73834 1
152.076 180.442 6.30631 1
246.689 180.469 6.31429 1
248.214 178.915 4.73268 1
249.814 180.455 6.28432 1
150.562 182.057 4.73354 1
148.967 183.601 6.28416 1
152.084 183.618 6.314 1
248.262 182.027 4.74081 1
249.828 183.622 6.30043 1
251.296 182.074 4.69903 1
147.493 185.214 4.69498 1
150.513 185.179 4.74021 1
148.95 186.776 6.29589 1
248.242 185.199 4.74468 1
249.869 186.747 6.30585 1
251.36 185.178 4.71568 1
252.894 186.78 6.26806 1
147.41 188.348 4.70205 1
150.533 188.358 4.74138 1
148.913 189.922 6.29967 1
249.849 189.927 6.30947 1
251.37 188.353 4.72551 1
252.97 189.916 6.27205 1
147.395 191.485 4.7155 1
145.872 193.097 6.26836 1
150.516 191.495 4.73845 1
148.898 193.049 6.30486 1
249.862 193.078 6.31155 1
251.407 191.506 4.72875 1
252.993 193.075 6.27765 1
147.405 194.66 4.72563 1
145.81 196.23 6.2708 1
148.932 196.231 6.3107 1
249.865 196.223 6.31403 1
251.419 194.652 4.73545 1
252.986 196.215 6.28748 1
147.382 197.811 4.72977 1
145.799 199.386 6.27296 1
148.927 199.386 6.31239 1
249.844 199.373 6.31366 1
251.422 197.779 4.74292 1
254.441 197.839 4.69458 1
252.969 199.39 6.2961 1
147.381 200.961 4.7297 1
145.809 202.542 6.27067 1
148.931 202.541 6.31051 1
249.842 202.552 6.31402 1
251.371 200.963 4.75042 1
254.489 200.965 4.69615 1
252.967 202.539 6.29609 1
147.404 204.112 4.72541 1
145.871 205.675 6.26814 1
148.896 205.724 6.30445 1
249.858 205.703 6.31502 1
251.417 204.148 4.74377 1
254.437 204.092 4.6944 1
252.979 205.714 6.28701 1
147.393 207.288 4.71515 1
150.514 207.279 4.73784 1
148.91 208.851 6.29905 1
249.849 208.849 6.3112 1
251.407 207.272 4.73614 1
252.974 208.853 6.27551 1
147.406 210.426 4.7015 1
150.529 210.417 4.74027 1
148.946 211.998 6.29515 1
249.873 212.026 6.30566 1
251.375 210.418 4.72603 1
252.898 211.991 6.26893 1
147.489 213.56 4.6947 1
150.507 213.597 4.73924 1
148.961 215.176 6.28341 1
152.075 215.158 6.31177 1
248.247 213.574 4.74336 1
249.832 215.151 6.30006 1
251.365 213.594 4.71552 1
150.551 216.725 4.7315 1
149.024 218.292 6.27038 1
152.059 218.329 6.30662 1
246.696 218.306 6.31282 1
248.268 216.747 4.7401 1
249.818 218.321 6.28448 1
251.299 216.701 4.69903 1
150.566 219.891 4.71199 1
153.69 219.866 4.74618 1
152.108 221.443 6.29899 1
246.703 221.479 6.30418 1
248.221 219.863 4.73196 1
249.762 221.421 6.26876 1
150.616 222.961 4.69118 1
153.687 223.043 4.73939 1
152.125 224.594 6.27297 1
155.216 224.644 6.30607 1
243.545 224.605 6.3125 1
245.127 223.05 4.7359 1
246.682 224.621 6.28507 1
248.194 223.016 4.70915 1
153.718 226.178 4.71204 1
156.792 226.206 4.73324 1
155.239 227.779 6.28581 1
158.378 227.761 6.31134 1
243.545 227.771 6.30314 1
245.071 226.153 4.73266 1
246.628 227.698 6.26583 1
156.849 229.306 4.73013 1
155.3 230.857 6.26738 1
158.381 230.925 6.30256 1
240.407 230.943 6.30345 1
241.955 229.343 4.73678 1
243.519 230.893 6.27474 1
245.058 229.286 4.70409 1
156.87 232.442 4.704 1
159.973 232.496 4.73676 1
158.412 234.049 6.27511 1
161.524 234.095 6.30414 1
237.259 234.104 6.30176 1
238.815 232.507 4.7325 1
240.372 234.061 6.27587 1
241.922 232.461 4.71017 1
160.01 235.614 4.71079 1
163.117 235.657 4.73362 1
161.561 237.213 6.27694 1
164.676 237.252 6.30352 1
234.104 237.259 6.30176 1
235.664 235.664 4.7312 1
237.219 237.219 6.27427 1
238.776 235.619 4.70542 1
163.159 238.768 4.70714 1
166.271 238.807 4.73402 1
164.719 240.366 6.27561 1
166.32 241.915 4.70732 1
167.837 240.4 6.30337 1
230.943 240.407 6.30345 1
232.507 238.815 4.7325 1
234.061 240.372 6.27587 1
232.461 241.922 4.71017 1
235.619 238.776 4.70542 1
169.44 241.944 4.73495 1
167.891 243.506 6.27091 1
169.519 245.024 4.69448 1
171.031 243.525 6.2992 1
172.606 241.948 4.74026 1
174.131 243.578 6.30551 1
172.576 245.086 4.71966 1
175.718 245.111 4.73714 1
224.605 243.545 6.3125 1
223.05 245.127 4.7359 1
227.771 243.545 6.30314 1
226.153 245.071 4.73266 1
229.343 241.955 4.73678 1
230.893 243.519 6.27474 1
229.286 245.058 4.70409 1
174.157 246.659 6.28015 1
177.297 246.694 6.30398 1
175.769 248.195 4.70579 1
180.469 246.689 6.31429 1
178.915 248.214 4.73268 1
182.027 248.262 4.74081 1
185.199 248.242 4.74468 1
213.574 248.247 4.74336 1
218.306 246.696 6.31282 1
216.747 248.268 4.7401 1
221.479 246.703 6.30418 1
219.863 248.221 4.73196 1
224.621 246.682 6.28507 1
223.016 248.194 4.70915 1
227.698 246.628 6.26583 1
177.365 249.764 6.26664 1
180.455 249.814 6.28432 1
183.622 249.828 6.30043 1
182.074 251.296 4.69903 1
186.747 249.869 6.30585 1
185.178 251.36 4.71568 1
189.927 249.849 6.30947 1
188.353 251.37 4.72551 1
193.078 249.862 6.31155 1
191.506 251.407 4.72875 1
196.223 249.865 6.31403 1
194.652 251.419 4.73545 1
199.373 249.844 6.31366 1
197.779 251.422 4.74292 1
202.552 249.842 6.31402 1
200.963 251.371 4.75042 1
205.703 249.858 6.31502 1
204.148 251.417 4.74377 1
208.849 249.849 6.3112 1
207.272 251.407 4.73614 1
212.026 249.873 6.30566 1
210.418 251.375 4.72603 1
215.151 249.832 6.30006 1
213.594 251.365 4.71552 1
218.321 249.818 6.28448 1
216.701 251.299 4.69903 1
221.421 249.762 6.26876 1
186.78 252.894 6.26806 1
189.916 252.97 6.27205 1
193.075 252.993 6.27765 1
196.215 252.986 6.28748 1
197.839 254.441 4.69458 1
199.39 252.969 6.2961 1
200.965 254.489 4.69615 1
202.539 252.967 6.29609 1
204.092 254.437 4.6944 1
205.714 252.979 6.28701 1
208.853 252.974 6.27551 1
211.991 252.898 6.26893 1
185.2 147.439 7.84418 1
188.339 147.358 7.85115 1
191.48 147.347 7.85763 1
193.091 145.835 9.42137 1
194.656 147.348 7.86352 1
196.227 145.77 9.42326 1
197.809 147.325 7.86618 1
199.386 145.759 9.42433 1
200.963 147.325 7.8661 1
202.544 145.769 9.42311 1
204.116 147.347 7.86325 1
205.68 145.833 9.42112 1
207.292 147.345 7.85727 1
210.434 147.354 7.85059 1
213.574 147.435 7.84368 1
178.883 150.538 7.8531 1
180.487 148.983 9.42145 1
182.043 150.507 7.86838 1
183.591 148.928 9.4312 1
185.168 150.462 7.87631 1
186.765 148.907 9.43945 1
188.345 150.48 7.88153 1
189.916 148.871 9.44449 1
191.492 150.467 7.8839 1
193.047 148.855 9.44822 1
196.229 148.886 9.45127 1
199.386 148.882 9.45242 1
202.543 148.885 9.45107 1
205.725 148.853 9.44782 1
207.282 150.464 7.88331 1
208.857 148.868 9.44396 1
210.429 150.476 7.8807 1
212.008 148.903 9.43887 1
213.607 150.456 7.8754 1
215.184 148.922 9.4311 1
216.736 150.496 7.86819 1
218.302 148.986 9.42296 1
219.902 150.515 7.85656 1
222.993 150.566 7.84081 1
172.588 153.681 7.84993 1
174.187 152.122 9.42147 1
175.74 153.65 7.86938 1
177.283 152.059 9.43554 1
178.852 153.607 7.8801 1
180.428 152.035 9.44797 1
183.604 152.041 9.45597 1
215.169 152.033 9.45539 1
218.34 152.018 9.44939 1
219.89 153.638 7.88477 1
221.46 152.063 9.44006 1
223.063 153.634 7.87317 1
224.612 152.087 9.42446 1
226.201 153.67 7.85353 1
166.327 156.865 7.84405 1
169.407 156.8 7.86172 1
170.983 155.231 9.43164 1
172.54 156.771 7.87797 1
174.123 155.189 9.44725 1
177.292 155.19 9.45759 1
224.662 155.178 9.44988 1
226.229 156.755 7.87924 1
227.796 155.205 9.43501 1
229.332 156.801 7.86775 1
230.881 155.268 9.41939 1
232.474 156.826 7.84568 1
163.137 159.979 7.84971 1
166.259 159.943 7.87395 1
164.711 158.395 9.42376 1
169.424 159.94 7.88545 1
167.854 158.366 9.44325 1
170.958 158.318 9.45455 1
227.786 158.343 9.45656 1
230.95 158.344 9.44462 1
232.527 159.931 7.87441 1
234.074 158.378 9.42471 1
235.646 159.968 7.85011 1
159.979 163.137 7.84971 1
163.092 163.092 7.8764 1
161.542 161.542 9.42641 1
166.257 163.102 7.88562 1
164.66 161.501 9.44818 1
167.828 161.512 9.45916 1
234.123 161.491 9.448 1
235.691 163.082 7.8752 1
237.24 161.531 9.42682 1
238.806 163.124 7.85042 1
156.865 166.327 7.84405 1
159.943 166.259 7.87395 1
158.395 164.711 9.42376 1
163.102 166.257 7.88562 1
161.501 164.66 9.44818 1
164.665 164.665 9.46002 1
237.283 164.647 9.44824 1
238.845 166.24 7.87465 1
240.398 164.693 9.42595 1
241.958 166.289 7.84804 1
156.8 169.407 7.86172 1
159.94 169.424 7.88545 1
158.366 167.854 9.44325 1
158.318 170.958 9.45455 1
161.512 167.828 9.45916 1
240.434 167.811 9.44658 1
241.989 169.411 7.87201 1
243.54 167.866 9.422 1
245.067 169.482 7.8417 1
153.681 172.588 7.84993 1
152.122 174.187 9.42147 1
155.231 170.983 9.43164 1
156.771 172.54 7.87797 1
155.189 174.123 9.44725 1
243.565 171.008 9.4414 1
241.99 172.576 7.88413 1
243.611 174.113 9.45321 1
245.129 172.562 7.86041 1
246.697 174.14 9.43002 1
153.65 175.74 7.86938 1
152.059 177.283 9.43554 1
155.19 177.292 9.45759 1
245.155 175.695 7.87687 1
246.735 177.28 9.44531 1
248.245 175.745 7.84826 1
249.801 177.348 9.41863 1
150.538 178.883 7.8531 1
148.983 180.487 9.42145 1
153.607 178.852 7.8801 1
152.035 180.428 9.44797 1
246.732 180.452 9.45574 1
248.269 178.897 7.86714 1
249.852 180.443 9.43129 1
150.507 182.043 7.86838 1
148.928 183.591 9.4312 1
152.041 183.604 9.45597 1
248.313 182.015 7.87753 1
249.871 183.61 9.4417 1
251.347 182.054 7.84669 1
147.439 185.2 7.84418 1
150.462 185.168 7.87631 1
148.907 186.765 9.43945 1
248.295 185.187 7.88419 1
249.911 186.74 9.44765 1
251.41 185.17 7.85643 1
252.931 186.772 9.42062 1
147.358 188.339 7.85115 1
150.48 188.345 7.88153 1
148.871 189.916 9.44449 1
249.892 189.919 9.45163 1
251.426 188.345 7.86372 1
253.009 189.91 9.42479 1
147.347 191.48 7.85763 1
145.835 193.091 9.42137 1
150.467 191.492 7.8839 1
148.855 193.047 9.44822 1
249.905 193.073 9.4551 1
251.46 191.498 7.86778 1
253.032 193.07 9.42917 1
147.348 194.656 7.86352 1
145.77 196.227 9.42326 1
148.886 196.229 9.45127 1
249.908 196.221 9.45803 1
251.472 194.649 7.87306 1
253.026 196.214 9.43416 1
147.325 197.809 7.86618 1
145.759 199.386 9.42433 1
148.882 199.386 9.45242 1
249.888 199.375 9.45855 1
251.475 197.78 7.87724 1
254.497 197.832 7.84492 1
253.014 199.389 9.43731 1
147.325 200.963 7.8661 1
145.769 202.544 9.42311 1
148.885 202.543 9.45107 1
249.886 202.553 9.4585 1
251.433 200.964 7.88044 1
254.546 200.966 7.8462 1
253.012 202.542 9.4371 1
147.347 204.116 7.86325 1
145.833 205.68 9.42112 1
148.853 205.725 9.44782 1
249.902 205.707 9.45759 1
251.471 204.148 7.87722 1
254.493 204.1 7.84437 1
253.019 205.717 9.4331 1
147.345 207.292 7.85727 1
150.464 207.282 7.88331 1
148.868 208.857 9.44396 1
249.893 208.856 9.45345 1
251.461 207.278 7.8721 1
253.013 208.86 9.42708 1
147.354 210.434 7.85059 1
150.476 210.429 7.8807 1
148.903 212.008 9.43887 1
249.914 212.034 9.44816 1
251.429 210.428 7.86518 1
252.935 212 9.4216 1
147.435 213.574 7.84368 1
150.456 213.607 7.8754 1
148.922 215.184 9.4311 1
152.033 215.169 9.45539 1
248.299 213.587 7.88372 1
249.875 215.163 9.44178 1
251.414 213.602 7.85678 1
150.496 216.736 7.86819 1
148.986 218.302 9.42296 1
152.018 218.34 9.44939 1
246.737 218.322 9.45533 1
248.318 216.759 7.87709 1
249.856 218.332 9.43147 1
251.35 216.72 7.84682 1
150.515 219.902 7.85656 1
153.638 219.89 7.88477 1
152.063 221.46 9.44006 1
246.743 221.495 9.4462 1
248.275 219.88 7.86732 1
249.798 221.436 9.42004 1
150.566 222.993 7.84081 1
153.634 223.063 7.87317 1
152.087 224.612 9.42446 1
155.178 224.662 9.44988 1
243.583 224.627 9.45557 1
245.169 223.069 7.87794 1
246.718 224.636 9.43287 1
248.242 223.038 7.85063 1
153.67 226.201 7.85353 1
156.755 226.229 7.87924 1
155.205 227.796 9.43501 1
158.343 227.786 9.45656 1
243.584 227.793 9.44371 1
245.125 226.175 7.86711 1
246.661 227.721 9.41763 1
156.801 229.332 7.86775 1
155.268 230.881 9.41939 1
158.344 230.95 9.44462 1
240.441 230.969 9.44718 1
241.998 229.373 7.87408 1
243.554 230.917 9.42386 1
245.104 229.316 7.84481 1
156.826 232.474 7.84568 1
159.931 232.527 7.87441 1
158.378 234.074 9.42471 1
161.491 234.123 9.448 1
237.289 234.132 9.4473 1
238.851 232.539 7.87407 1
240.404 234.086 9.42603 1
241.965 232.491 7.84938 1
159.968 235.646 7.85011 1
163.082 235.691 7.8752 1
161.531 237.24 9.42682 1
164.647 237.283 9.44824 1
234.132 237.289 9.4473 1
235.698 235.698 7.87344 1
237.248 237.248 9.42616 1
238.813 235.655 7.84944 1
163.124 238.806 7.85042 1
166.24 238.845 7.87465 1
164.693 240.398 9.42595 1
167.811 240.434 9.44658 1
230.969 240.441 9.44718 1
232.539 238.851 7.87407 1
234.086 240.404 9.42603 1
235.655 238.813 7.84944 1
166.289 241.958 7.84804 1
169.411 241.989 7.87201 1
167.866 243.54 9.422 1
169.482 245.067 7.8417 1
171.008 243.565 9.4414 1
172.576 241.99 7.88413 1
174.113 243.611 9.45321 1
172.562 245.129 7.86041 1
175.695 245.155 7.87687 1
224.627 243.583 9.45557 1
227.793 243.584 9.44371 1
226.175 245.125 7.86711 1
229.373 241.998 7.87408 1
230.917 243.554 9.42386 1
229.316 245.104 7.84481 1
232.491 241.965 7.84938 1
174.14 246.697 9.43002 1
177.28 246.735 9.44531 1
175.745 248.245 7.84826 1
180.452 246.732 9.45574 1
178.897 248.269 7.86714 1
182.015 248.313 7.87753 1
185.187 248.295 7.88419 1
213.587 248.299 7.88372 1
218.322 246.737 9.45533 1
216.759 248.318 7.87709 1
221.495 246.743 9.4462 1
219.88 248.275 7.86732 1
223.069 245.169 7.87794 1
224.636 246.718 9.43287 1
223.038 248.242 7.85063 1
227.721 246.661 9.41763 1
177.348 249.801 9.41863 1
180.443 249.852 9.43129 1
183.61 249.871 9.4417 1
182.054 251.347 7.84669 1
186.74 249.911 9.44765 1
185.17 251.41 7.85643 1
189.919 249.892 9.45163 1
188.345 251.426 7.86372 1
193.073 249.905 9.4551 1
191.498 251.46 7.86778 1
196.221 249.908 9.45803 1
194.649 251.472 7.87306 1
199.375 249.888 9.45855 1
197.78 251.475 7.87724 1
202.553 249.886 9.4585 1
200.964 251.433 7.88044 1
205.707 249.902 9.45759 1
204.148 251.471 7.87722 1
208.856 249.893 9.45345 1
207.278 251.461 7.8721 1
212.034 249.914 9.44816 1
210.428 251.429 7.86518 1
215.163 249.875 9.44178 1
213.602 251.414 7.85678 1
218.332 249.856 9.43147 1
216.72 251.35 7.84682 1
221.436 249.798 9.42004 1
186.772 252.931 9.42062 1
189.91 253.009 9.42479 1
193.07 253.032 9.42917 1
196.214 253.026 9.43416 1
197.832 254.497 7.84492 1
199.389 253.014 9.43731 1
200.966 254.546 7.8462 1
202.542 253.012 9.4371 1
204.1 254.493 7.84437 1
205.717 253.019 9.4331 1
208.86 253.013 9.42708 1
212 252.935 9.4216 1
185.191 147.408 10.9992 1
188.332 147.326 11.0045 1
191.476 147.315 11.009 1
193.088 145.809 12.5773 1
194.653 147.313 11.0126 1
196.226 145.742 12.5786 1
197.809 147.29 11.0143 1
199.386 145.731 12.5792 1
200.963 147.29 11.0142 1
202.545 145.741 12.5785 1
204.118 147.312 11.0124 1
205.683 145.807 12.5771 1
207.296 147.312 11.0087 1
210.441 147.323 11.0041 1
213.582 147.404 10.9989 1
178.871 150.505 11.0055 1
180.478 148.957 12.5772 1
182.032 150.473 11.0157 1
183.583 148.901 12.5845 1
185.159 150.428 11.0227 1
186.758 148.879 12.5907 1
188.337 150.444 11.0278 1
189.911 148.841 12.5952 1
191.487 150.431 11.0312 1
193.045 148.825 12.5981 1
196.228 148.855 12.6001 1
199.386 148.851 12.6008 1
202.544 148.854 12.5999 1
205.727 148.824 12.5978 1
207.285 150.429 11.0307 1
208.861 148.838 12.5948 1
210.436 150.44 11.0272 1
212.015 148.875 12.5904 1
213.614 150.422 11.0223 1
215.192 148.895 12.5846 1